# vtk DataFile Version 4.2
vtk output
ASCII
DATASET POLYDATA
POINTS 12659 float
206.756 165.691 34.1189 206.386 165.545 34.3311 206.662 165.96 33.9494 
205.968 166.227 33.9516 206.457 166.356 33.6494 205.127 166.744 33.983 
205.949 167.031 33.3588 205.767 167.875 32.8627 204.944 167.506 33.476 
206.333 166.74 33.4142 206.062 167.739 32.8409 206.208 167.186 33.1556 
204.987 168.284 32.855 204.284 168.157 33.2069 206.126 168.065 32.7674 
202.843 167.898 34.1337 202.831 168.545 33.6731 203.721 167.859 33.7112 
203.681 168.686 33.0947 202.887 169.255 33.201 203.098 170.132 32.6258 
203.764 169.375 32.7164 205.666 168.878 32.6242 204.678 169.128 32.6876 
205.192 169.912 32.5213 206.197 168.584 32.6276 206.204 169.532 32.5163 
206.453 169.39 32.5184 206.361 169.102 32.5574 201.893 169.099 33.7801 
202.263 169.806 33.0892 201.437 169.736 33.4505 201.744 170.492 32.7878 
202.456 170.785 32.5848 204.099 170.045 32.5207 206.101 170.408 32.5025 
206.835 170.197 32.5025 206.663 169.835 32.5092 200.884 169.15 34.2409 
200.745 170.11 33.5795 201.125 170.858 32.8933 200.183 170.74 33.5548 
203.946 170.964 32.5025 204.807 170.762 32.5025 203.151 171.168 32.5386 
203.605 171.906 32.507 205.627 171.207 32.5025 204.631 171.79 32.5025 
206.959 170.447 32.5025 206.669 171.131 32.5025 200.502 171.477 33.0327 
199.61 171.596 33.3021 200.085 172.251 32.8198 199.224 172.493 32.9388 
201.154 171.874 32.5844 200.788 172.75 32.5182 203.075 172.665 32.5025 
202.539 171.987 32.536 201.821 172.591 32.5105 201.911 171.493 32.5792 
207.239 171.008 32.5025 207.43 171.389 32.5025 207.284 171.659 32.5025 
206.766 172.317 32.5025 205.863 171.989 32.5025 207.876 172.297 32.5025 
207.88 172.29 32.5025 207.547 171.623 32.5025 205.113 172.674 32.5025 
204.065 172.766 32.5025 204.564 173.513 32.5025 207.883 172.297 32.5025 
197.604 173.448 32.8007 198.345 173.045 32.8336 197.646 172.647 33.404 
198.511 172.258 33.305 199.111 173.484 32.6391 198.529 174.132 32.548 
199.912 173.122 32.5734 203.34 173.515 32.5025 205.531 173.616 32.5025 
206.346 174.232 32.5025 206.076 172.942 32.5025 206.762 173.416 32.5025 
207.572 173.08 32.5025 208.371 173.274 32.5025 208.318 173.404 32.5025 
208.413 173.359 32.5025 196.766 173.361 33.3573 197.33 172.071 34.1133 
196.764 172.719 33.9969 196.017 173.951 33.4768 196.603 174.217 33.0165 
200.918 174.487 32.5025 201.194 173.516 32.5025 200.186 173.82 32.5025 
199.687 174.467 32.5025 201.821 174.006 32.5025 202.8 174.329 32.5025 
202.369 173.33 32.5025 202.034 174.871 32.5025 204.026 174.138 32.5025 
207.392 174.148 32.5025 208.307 174.329 32.5025 197.202 175.006 32.6263 
197.334 174.172 32.729 198.03 174.857 32.5151 204.341 175.038 32.5025 
203.444 174.828 32.5025 205.172 174.353 32.5025 206.126 175.084 32.5025 
205.262 175.255 32.5025 208.513 173.559 32.5025 208.816 174.165 32.5025 
196.022 174.885 33.0313 195.349 175.66 33.2578 195.924 175.848 32.7363 
195.433 174.319 33.8196 195.097 175.091 33.7387 196.687 175.59 32.6186 
199.513 176.007 32.5025 199.077 174.999 32.5025 198.606 175.566 32.5025 
200.049 175.219 32.5025 200.727 175.56 32.5025 207.059 175.122 32.5025 
207.67 175.896 32.5025 208.092 175.113 32.5025 209.202 174.939 32.5025 
209.205 174.977 32.5025 209.824 176.184 32.5025 209.545 175.625 32.5025 
208.899 175.781 32.5025 209.785 176.269 32.5025 209.227 174.989 32.5025 
209.218 174.97 32.5025 201.397 175.384 32.5025 202.228 176.694 32.5025 
202.66 175.555 32.5025 201.959 175.898 32.5025 203.396 175.676 32.5025 
203.122 176.644 32.5025 194.495 175.875 34.2169 194.557 176.873 33.9505 
194.874 176.276 33.6073 196.972 176.374 32.5675 197.788 176.936 32.5056 
197.666 175.882 32.5072 198.366 176.286 32.5025 200.33 176.367 32.5025 
201.309 176.456 32.5025 200.794 177.227 32.5025 204.861 175.978 32.5025 
203.99 176.048 32.5025 204.265 176.724 32.5025 206.789 176.196 32.5025 
205.982 176.03 32.5025 206.47 177.214 32.5025 207.42 176.893 32.5025 
209.894 176.324 32.5025 195.837 177.478 32.8683 196.167 176.708 32.684 
195.407 176.701 33.1128 196.853 177.237 32.6053 205.511 176.759 32.5025 
204.96 177.303 32.5025 208.332 176.447 32.5025 207.655 177.712 32.5025 
208.496 177.353 32.5025 209.181 176.865 32.5025 194.804 178.317 34.0416 
195.541 178.235 33.3592 195.072 177.538 33.5525 194.399 177.533 34.3339 
199.045 176.74 32.5025 197.962 177.689 32.5025 198.761 177.449 32.5025 
199.873 177.165 32.5025 198.673 178.369 32.5307 199.542 177.904 32.5025 
201.033 178.121 32.5025 201.724 177.506 32.5025 201.855 178.476 32.5084 
202.642 177.602 32.5025 203.367 177.886 32.5025 204.033 177.464 32.5025 
204.946 178.178 32.5025 205.838 177.861 32.5025 210.478 177.493 32.5025 
210.241 177.02 32.5025 209.9 177.408 32.5025 197.118 177.988 32.5285 
196.273 178.121 32.799 196.91 178.797 32.6962 197.867 178.421 32.5178 
202.724 178.644 32.5193 203.475 178.915 32.5335 204.178 178.436 32.5025 
209.162 178.109 32.5025 210.642 177.822 32.5025 210.099 178.392 32.5025 
195.999 179.785 33.8746 196.667 179.726 33.4007 196.226 179.005 33.2446 
195.484 178.944 33.7637 200.273 178.336 32.5025 199.562 178.766 32.511 
199.786 179.542 32.637 200.875 179.139 32.5298 206.91 178.155 32.5025 
206.072 178.693 32.5025 206.986 179.098 32.5071 208.441 178.343 32.5025 
207.769 178.67 32.5025 208.723 179.503 32.5371 207.918 179.538 32.5374 
209.286 178.959 32.5045 209.849 179.45 32.5368 210.949 178.436 32.5025 
210.83 179.2 32.5189 211.066 178.659 32.5071 211.264 179.04 32.5126 
197.785 179.136 32.6155 198.195 179.812 32.7743 198.866 179.256 32.6045 
204.275 179.336 32.5199 204.736 180.008 32.5488 205.178 179.104 32.5025 
205.378 180.367 32.5913 206.066 179.614 32.5199 197.342 179.69 33.0041 
201.973 179.33 32.5931 200.596 179.922 32.7317 201.649 180.061 32.6922 
202.282 180.762 32.9902 202.895 180.464 32.7764 202.841 179.634 32.6134 
203.76 180.025 32.6146 210.237 180.054 32.5991 209.183 180.338 32.6242 
209.898 180.803 32.6834 210.94 180.222 32.6157 211.012 181.06 32.7874 
211.825 180.63 32.6552 211.665 179.702 32.565 211.66 179.695 32.5643 
211.657 179.689 32.5638 197.207 180.352 33.6956 197.563 181.045 34.1481 
198.019 180.433 33.3634 198.322 181.049 33.8848 198.894 180.185 33.0353 
199.722 180.335 33.1894 199.186 180.959 33.7281 200.112 181.082 33.7096 
201.324 180.741 33.0734 200.563 180.617 33.1968 203.721 180.86 32.8691 
204.502 180.978 32.7861 207.203 180.038 32.5927 206.336 180.502 32.6271 
208.213 180.462 32.6384 208.793 181.183 32.8511 207.9 181.251 32.8827 
207.172 180.929 32.7168 210.308 181.367 33.016 212.682 181.018 32.8334 
212.167 180.502 32.6418 212.714 181.222 32.8968 212.808 181.172 32.8696 
201.06 181.37 33.6736 201.879 181.218 33.41 201.794 181.888 34.0569 
202.465 181.641 33.7338 203.1 181.314 33.3799 202.895 182.148 34.1794 
203.958 181.702 33.4741 206.328 181.467 33.0628 205.552 181.155 32.7995 
203.791 182.352 34.1642 204.69 182.171 33.7766 204.999 181.638 33.2011 
205.648 182.081 33.6554 204.874 182.627 34.3225 205.897 182.634 34.3184 
206.571 182.192 33.7689 207.184 181.699 33.294 208.018 181.922 33.5412 
208.796 181.939 33.5864 207.533 182.413 34.0342 208.428 182.692 34.4214 
210.277 181.943 33.5644 209.623 182.225 33.8505 210.204 182.635 34.3659 
209.492 181.523 33.173 209.224 182.646 34.3766 211.232 181.768 33.3931 
211.945 181.435 33.0831 210.888 182.351 33.9625 212.27 182.59 34.2754 
212.609 182.014 33.6079 211.695 182.306 33.9114 213.466 181.596 33.2016 
213.378 181.525 33.1629 213.368 181.665 33.2598 214.038 181.918 33.508 
214.031 181.914 33.5041 214.027 181.917 33.5062 214.028 181.913 33.5024 
213.374 182.396 33.9888 206.102 164.297 35.3451 205.382 164.76 35.3267 
205.714 165.287 34.779 206.501 164.852 34.8133 204.695 165.442 35.1418 
205.277 165.941 34.4972 206.904 165.293 34.3772 207.021 164.971 34.584 
203.898 165.654 35.273 204.518 166.319 34.5911 203.732 166.573 34.7758 
202.791 166.914 34.927 203.356 167.313 34.3737 204.232 167.162 34.088 
202.184 167.734 34.6734 201.272 168.326 34.697 201.976 168.434 34.2525 
200.476 168.366 34.9212 199.938 169.155 34.7969 200.122 169.836 34.2446 
199.396 170.723 33.9846 199.296 169.949 34.5873 198.488 170.216 34.6664 
198.426 170.887 34.2971 199.132 168.844 35.0527 198.548 169.414 35.0254 
197.606 171.335 34.5218 196.672 172.1 34.6977 197.488 170.739 35.1545 
196.817 171.372 35.2382 198.888 171.528 33.6343 198.096 171.731 33.8894 
196.108 171.906 35.4467 195.975 172.621 34.8706 195.975 173.31 34.1625 
195.417 173.155 34.9975 195.21 173.892 34.5145 195.042 173.041 35.6318 
194.709 173.916 35.228 194.423 173.476 36.1093 194.701 174.793 34.4649 
193.878 175.203 35.6943 194.228 175.404 34.9239 194.272 174.507 35.4789 
193.879 177.39 35.0632 194.034 176.529 34.7462 193.509 177.029 35.6494 
193.744 176.101 35.4968 194.237 178.245 34.8224 193.85 178.275 35.4597 
194.613 179.005 34.7523 195.173 179.415 34.3427 194.183 179.182 35.4995 
194.797 179.889 35.1578 195.493 180.695 35.1688 195.698 180.26 34.5036 
197.18 181.452 34.764 196.631 180.656 34.2111 196.255 181.046 34.9139 
197.957 181.699 34.7928 198.84 181.616 34.3907 199.517 182.159 34.8489 
199.775 181.651 34.293 198.52 182.13 35.1694 200.583 181.805 34.2022 
200.472 182.409 34.895 201.229 182.236 34.5333 200.639 183.021 35.6683 
201.286 182.915 35.3242 201.885 182.609 34.8788 202.614 182.711 34.8019 
202.231 183.245 35.5779 214.603 182.202 33.8232 214.164 182.625 34.2584 
203.369 182.975 34.9532 204.222 182.986 34.9203 205.196 183.032 34.9629 
203.896 183.414 35.6519 204.969 183.426 35.622 206.026 183.152 35.1267 
206.979 183.227 35.2464 206.775 182.758 34.5074 207.702 182.972 34.845 
210.982 182.912 34.7386 211.836 183.011 34.8836 212.957 182.887 34.7258 
212.495 183.338 35.4696 213.353 183.436 35.6307 213.828 183.086 34.9554 
214.901 182.334 33.9961 214.993 182.616 34.3189 215.191 182.454 34.1675 
214.773 183.111 34.9855 215.693 182.823 34.6548 215.667 182.644 34.451 
215.821 182.702 34.5442 216.029 182.779 34.671 216.426 182.916 34.9155 
216.15 183.11 35.0894 208.075 161.718 36.5784 208.189 161.534 36.7318 
[...]
POINT_DATA 12659
FIELD FieldData 2
scalars 1 12659 float
113.675 117 111 111 110.368 100 107 106 103 
108.453 104.034 104.472 115 109 103.538 111 107 116 
108 110 111 112 111 118 107 105.009 102 
101.359 101.279 109 113 113 114 112 104 104 
100.317 100.458 110 108 107 102 102 102 109 
107 102 106 97.3907 94 107 112 118 113 
106 117 103 111 111 110 94.5598 96.2783 97 
106 109 98 97.9823 96.7397 103 98 102 98 
96 98 98 105 104 103 119 100 106 
117 110 114 113 104.216 105 103.967 100 98 
102 104 106 115 124 118 111 118 101 
114 101 108 113 106 102 99 108 120 
105 119 128 131 102.869 99.9146 103 104 110 
99 104 103 108 116 111 113 110 115 
105 112 96.9587 97 100.679 96.0632 94 101 97.0235 
96.94 105 107 94 99 102 110 107 108 
107 106 113 101 104 112 104 110 117 
107 101 113 120 99 109 100.018 113 107 
108 113 101 94 97 103 104 102 114 
114 111 110 110 117 117 115 122 119 
111 104 108 106 98 97 88 97 93.159 
93.0348 92 114 115 116 118 99 87 85 
93 92.0837 88 111 115 115 113 118 126 
126 119 97 97 104 97 105 106 110 
94 101 100.023 99 101.872 105.112 119 125 127 
91 94 89 94 93 120 111 119 113 
105 94 98 95 113 111 116 110 112 
109 105.038 105.019 104.954 115 114 124 122 129 
126 125 117 114 118 106 98 105 106 
104 108 107 110 118 104.129 103.998 106 105.737 
113 110 121 119 114 115 107 108 113 
102 101 108 112 107 114 111 107 113 
113 110 111 120 121 121 118 118 116 
114 119 117 112 118 100 100.68 100 101.113 
101.023 101 100.995 106 113 112 116 119 104 
106 111.333 111.409 101 99 102 102 112 107 
105 104 103 106 112 109 99 108 103 
100 117 113 101 107 96 101 109 103 
110 110 110 107 103 107 111 118 108 
112 111 115 108 106 107 107 114 115 
114 112 115 110 109 107 119 115 120 
112 117 111 114 111 110 111 116 114 
115 120 117 117 108.08 106 108 104 107 
109 109 110 107 108 105 118 118 113 
117 113 110 109.531 110 112.981 108 117 117.514 
118.883 121.102 122.899 117 92.9535 93.7816 92 96.9264 95.5584 
91 95 105 103 104.937 101.466 96 108.282 109 
97.3998 112 106 115 110 105 105 105 114.341 
108.399 113.978 107 100 102 103 100 97 101 
101 104 104 111 103 110 105 105 100 
107 113 116 117 116 116 104 111 96 
105 107 102 102 108 104 105 115 117 
113 120 121 117 115 113 110 125 126 
135 129 128 122 127 121 121 116 130 
125 115 126.063 127.286 127 123.865 113.196 116 115 
114 118 110 110 113 115 112 114 111 
108 109 112 115 118 117 115 115 116 
116 115 111 107 107 107 105 101 117 
123.92 119 106 125.365 98 106 91 101 89 
112 113 108 109 104 105 104 106 109 
109 103 108 101 104 102 105 100 99 
105 101 107 107 105 112 108 114 117 
109 115 106 96 104 113 111 110 118 
99 115 111 114 110 104 109 119 122 
121 119 114 119 119 128 115 112 120 
120 118 113 112 101.821 103.946 105 101 105 
103.955 105 115.208 106.164 115 105.343 114.596 114 114 
116 116 107 106 112 108 100 107 116 
109 113 116 120 112 114 113 107 114 
111 113 109 107 102 102 103 105.947 101 
90 90 95 94 94 97 92.0949 91.2707 90 
90.6644 94.7615 95.0341 95.7131 94.9592 89 109 112 111 
111 109 111 109 105 111 111 106 105 
108 110 120 109 110 110 109 109 105 
107 102 101 108 111 110 112 109 115 
105 110 112 118 117 115 115 107 100 
105 103 101 109 108 107 100 108 109 
104 107 107 107 104 104 107 100 112 
118 117 114 116 117 116 113 114 117 
116 121 113 112 121 115 103 119 115 
121 122.667 122.676 123 123 121.893 119.799 121 121 
119 120 118 113 113 118 102 104 110 
104 110 105 109 109 108 114 102 103 
99 101 106 108 110 120 113.026 112 118 
120 108 116 116 116 103 101 99 101 
99 107 94 96 97 99 99 98.1247 98.9081 
97 97 93.9066 90 91.1665 105 102 97 101 
107 107 107 98 111 112 109 103 107 
105 108 109 109 94 102 102 107 115 
112 119 116 114 105 108 108 106 109 
112 109 111 112 117 103 109 107 110 
108 114 116 115 114 107 112 103 104 
106 106 95 98 104 91 103 95 104 
105 111 97 101 100 98 109 101 111 
114 110 119 114 111 116 109 116 116 
115 113 118 120 118 118 102 104 101 
108 129.404 125.548 126 125.13 123 110 110 111 
110 109 111 105 102 106 109 105 104 
106 101 105 104 105 112 110 100 108 
101 100 99 101 107 102 100 111 117 
104 100 101 103 102 101 101 104 101 
103 101 101.884 101.646 101 101.529 100.994 100 101 
102.147 97 105 110 111 107 111 108 108 
106 107 106 112 112 106 115 103 124 
114 124 116 110 118 121 115 116 113 
111 111 112 110 112 110 108 111 109 
120 115 123 116 115 114 114 112 112 
114 112 127 124 123 111 111 123 119 
124 117 109 115 109 112 116 117 102 
109 104 102 115 113 111 105 105 108 
102 113 107 102 104 102 106 99 108 
97 106 112 110 103 105 108 95 100 
95 94 93 94 97 108 99 96 99 
86 95 108 103 96 94 91 93 95 
99 93 97 105 98 102 102 101 105 
103 109 114 117 118 114 117 105 108 
109 109 106 112 107 101 97 108 100 
99 115 111 107 101 119 109 115 113 
109 108 112 122.678 129.418 137 131.016 135.497 139 
134 125 120 122 118 124 117 119 133 
133 121 120 126 119 124 122 123 122 
127 106 112 107 113 108 113 110 109 
104 106 103 109 113 113 111 114 108 
114 108 117 115 114 115 104 112 111 
105 102 109 113 111 116 116 101 105 
100 102 104 104 100.318 108.447 108 100 100.794 
100.076 100.975 97 108.975 102 106 104 104 106 
105 109 106 108 106 108 100 104 103 
110 111 103 109 116 111 109 103 107 
122 117 124 124 119 118 114 109 107 
109 111 108 111 112 110 110 123 115 
120 121 119 120 116 122 108 108 109 
106 107 118 116 118 115 108 105 105 
107 105 104 107 99 94 90 101 95 
93 119 118 111 119 119 116 113 116 
114 109 113 105 110 106 110 108 113 
109 106 109 109 113 110 115 109 111 
118 112 115 118 117 118 125.562 124.265 125 
122.4 123 125 122 133 126 126 122.15 116 
123 120 112 121 121 129 126 125 124 
115 111 111 112 111 115 108 112 108 
115 115 124 114 120 118 113 115 117 
110 116 109 106 103 100 99 104 108.586 
108 107.844 105 105 109 114 101 107 102 
99 103 111 111 114 107 105 112 114 
112 104 117 120 115 110 108 123 109 
108 104 104 109 111 106 108 113 115 
117 116 119 118 119 113 118 105 110 
105 115 113 112 115 109 98 101 97 
97 97 97 105 111 105 105 108 105 
116 112 118 123 114 118 120 112 121 
109 110 111 106 109 114 119 115 112 
112 110 111 110 108 111 109 117 116 
126 126 131 139 137 136 121 125 123 
125.099 124.276 123.669 123 121 122 125.502 128.052 129 
124 124 118 122 116 115 119 120 119 
118 118 117 120 114 110 112 110 113 
101 104 107 110 104 104 105 113 111 
119 115 128 128 133 116 109 104 106 
111 107 113 116 105.884 102.423 105 98.1331 97 
104 108 114 117 116 105 110 114 107 
106 113 104 101 105 109 114 113 112 
108 106 111 120 118 120 113 115 118 
117 105 113 103 107 101 109 104 103 
104 102 115 121 116 104 105 102 105 
105 106 103 106 117 110 117 99 109 
101 101 98 102 108 115 114 111 102 
102 106 103 113 116 125 122 126 123 
120 125 123 121 117 113 109 110 109 
104 109 102 105 113 106 111 102 114 
117 110 118 118 118 116 118 125 125.947 
127 144 145.539 127.929 138 143 140 137 132 
127 130 125 127 125 122 124 128 123 
120 124 123 125 126 118 123 118 121 
120 117 120 119 122 119 125 122 101 
104 110 132 123 115 113 108 117 115 
117 117 118 118 112 118 114 121 108 
121 126 126 129 118 122 118 119 128 
131 97 99 92 98.162 95 93 96 97.6774 
98.1143 99 95 102.33 105.605 104 108.388 106 107.525 
109.984 110.667 112 108 104 106 116 101 103 
105 102 107 109 107 111 101 109 109 
120 119 116 117 115 117 115 111 108 
116 110 119 112 107 120 118 120 119 
115 111 109 115 111 117 106 107 115 
109 125 120 116 104 118 122 118 115 
113 116 114 111 111 108 116 112 110 
111 116 113 105 102 107 111 114 117 
117 103 109 106 106 106 110 104 115 
107 106 109 104 108 112 111 110 110 
117 99 102 111 105 108 95 116 109 
110 111 99 98 108 113 112 111 112 
108 110 99 106 108 118 113 105 118 
118 109 100 97 101 104 100 100 102 
108 103 105 106 104 103 118 102 116 
123 103 102 108 113 103 120 122 117 
126 109 117 119 108 101 99 107 105 
104 106 107 106 109 116 111 109 112 
125 124 110 118 118 116 106 116 110 
116 115 114 117 115 112 115 104 115 
107 101 95 100 97 99 105 102 112 
116 136.083 137.094 138 143.713 146.09 147 147.581 141 
119 120 116 113 114 139 138 117 116 
121 125 123 127 119 118 132 123 122 
129 130 123 126 120 117 119 125 122 
115 122 133 124 115 115 125 111 115 
117 114 115 116 116 112 122 120 123 
117 117 119 123 125 123 128 119 122 
122 128 119 107 110 114 117 113 118 
111 112 110 111 100 98 107 100 104 
110 114 105 112 111 112.971 113 113.004 97 
94 98 93 94 105 104 106 109 110 
108 105 105 107 103 101 116 123 124 
117 120 113 116 113 115 115 116 121 
105 112 114 114 115 121 118 111 121 
110 110 117 115 122 129 122 113 123 
113 107 122 119 120 108 123 111 113 
119 110 111 109 115 110 114 115 105 
109 115 106 106 111 115 107 106 106 
108 110 107 115 113 105 110 113 108 
100 113 108 98 110 99 94 97 103 
115 120 127 110 123 108 108 122 122 
111 124 114 109 113 113 111 118 121 
112 113 104 105 111 116 110 117 118 
115 109 112 119 138.892 138.862 139 137 134.341 
134 137 133.917 130 120 136.095 140 134.204 133.84 
133 141 140 126 131 108 137 135.242 142 
139 135 130 111 110 117 118 122 126 
129 123 123 124 123 117 120 118 122 
127 131 132 124 121 121 117 114 132 
119 115 124 122 127 120 120 119 122 
123 118 116 118 122 122 134 136 128 
127 136 124 108 107 111 117 114 120 
124 126 126 129 124 115 111 117 112 
117 118 117 115 143 143 140 123 119 
106 101 104 109 106 111 105 111 104 
101 92 112 108 112.872 111 106 110 107 
106 110.945 110.135 107 107.723 108.015 104 103 110 
106 115 115 106 107 102 100 102 113 
116 111 112 118 118 114 116 116 117 
117 121 121 123 124 122 115 113 109 
109 111 109 107 103 104 105 111 105 
112 112 111 113 115 109 106 115 116 
121 117 117 114 106 104 112 112 114 
102 115 112 124 116 132 128 111 124 
128 124 138.86 110 112 112 118 123 117 
117 138 137 131 137 126 122 143 130 
135 149 142 133 144 139 147 149 127 
141 120 116 125 121 125 121 120 123 
125 133 128 120 117 116 115 132 137 
134 117 133 132 129 129 133 126 132 
127 122 125 119 120 120 122 118 123 
125 136 136 145 142 146 150 148 147 
120 121 114 110 115 119 118 118 118 
114 119 116 116 119 116 146 148 148 
140 137 127 130 127 121 112 118 106 
108 111 113 110 115 113 105 107 114 
101 109 116 99 96 104 105 99 93 
91 95 99 110 107.431 109.795 109 109 106 
108 105 106 99 103 111.437 111.482 113 110.674 
115 111 112 112 112 116 112 113 102 
108 103 102 121 125 134 134 130 129 
115 107 109 110 112 109 114 115 130 
126 125 124 125 120 124 122 117 127 
126 123 123 111 122 122 114 106 117 
114 103 114 114 111 108 105 117 121 
127 120 123 121 109 117 118 114 113 
93 107 103 97 104 96 92 100 106 
109 102 106 107 100 131.877 129.716 126 133 
131.234 135.051 115 105 130 118 125 131 131 
129 131.593 132.817 132 138.545 133.59 109 104 118 
117 109 130 137 123 144 143 150 148 
119 122 125 116 115 118 150 149 153 
141 153 120 121 140 124 140 127 123 
116 115 116 116 133 130 133 134 118 
118 129 132 138 121 114 112 111 115 
114 110 121 135 132 138 130 137 129 
146 151 115 114 111 104 108 113 116 
112 113 111 110 112 107 108 108 112 
113 115 116 116 116 114 146 141 141 
124 126 103 110 117 111 104 110 100 
97 96 94 105 98 101 96 105 105 
108 113 118 97 95 120 121 108 106 
107 107 97 97 98 116 113 109 109.21 
106.789 105.924 113 115 115 116 118 113 110 
114 101 107 103 111 106 103 102 108.001 
108.602 109 121 117 116 107 112 113 110 
110 109.77 111.365 123 117 127 118 117 126 
122 125 125 125 124 123 130 128 119 
114 104 108 107 115 112 115 115 103 
107 105 110 108 112 111 115 124 122 
127 120 125 123 119 119 123 116 115 
123 118 125 123 103 95 95 92 93 
92 99 99 103 100 99 104 98 102 
100 105 125 128 129 126 115 100 108 
99 113 112 131 129 135 129 126 97 
92 127 127 128 131 131 111 90 127 
117 117 117 116 124 130 124 126 123 
163 168 165 162 129 131 130 131 151 
134 123 123 126 126 128 126 107 114 
115 126 120 126 130 140 133 138 134 
129 148 138 106 106 107 106 110 115 
109 115 110 113 114 135 144 142 149 
151 131 127 136 145 142 129 122 120 
123 122 116 118 103 104 107 103 101 
98 98 97 117 117 106 99 101 108 
101 106 110 108 103 99 124 126 129 
108 103 100 101 98 122 113 113 113 
122 124 106 112 110 114 114 115 115 
114.046 113 110 121 123 119 118 117 116 
118 118 113 112 112 106 102 104 112 
118 118 118 114 108.69 105.176 101.453 102.143 102 
98.4329 99 114 106 102.692 117 116 111 109 
113 118 125 113 113 116 118 113 112 
106 107 102 110 112 110 115 119 114 
118 125 117 123 120 114 115 111 117 
114 123 120 125 113 122 111 98 97 
126.247 129.642 132 127 125.043 98 103 98 102 
130.56 131.497 136 132 133 132 129.282 127.177 138 
99 96 100 124 122 125 98 97 101 
90 124 98 99 104 127 124 122 112 
109 107 100 119 129 125 128 115 95 
102 101 114 106 123 122 136 129 140 
142 145 129 126 152 146 152 165 161 
157 151 152 150 123 144 135 131 143 
135 114 112 119 116 130 132 123 132 
125 118 124 126 122 126 128 132 107 
110 115 115 107 107 112 109 113 118 
118 136 133 134 130 124 126 123 119 
120 117 117 121 121 120 104 111 104 
113 110 110 110 110 111 111 111 107 
112 109 104 107 111 111 114 118 112 
97 106 103 123 120 121 110 111 102 
106 107 115 110 119 129 99 99 108 
100 105 116 117 124 114 100 100 109 
108 111 103 103 106 105 105 109 103 
115 125 104 126 99 99 104 103 109 
109 113 114 111 111 109 101 107 107.806 
105.744 114 111 124 119 126 123 123 121 
125 130 131 126 127 127 119 108 109 
113 114 105 115 111 107 112 108 108 
111 116 112 118 114 110 115 109 108 
107 96 106 100 94 107 105 95 94 
89 98 96 99 97 112.463 113.032 126 121 
117.081 123.294 101 108 100 133 140 101 107 
107 105 99 109 110 130 131 118 130 
92 100 118 126 124 127 124 130 122 
105 101 104 122 95 100 120 114 102 
96 106 130 107 93 95 95 104 107 
107 105 111 117 110 128 118 120 115 
118 113 116 119 127 120 124 124 126 
131 137 117 111 116 121 117 120 113 
116 127 139 134 135 140 144 149 142 
144 150 150 114 145 127 125 118 117 
118 121 121 118 121 121 126 120 119 
117 105 104 109 117 107 108 112 112 
109 117 111 114 119 117 116 117 110 
117 111 116 113 112 113 117 117 115 
109 111 110 108 103 106 101 103 114 
103 125 125 126 123 121 114 115 112 
115 114 117 111 120 113 114 126 129 
120 123 99 109 102 113 112 105 106 
105 102 101 101 102 106 105 101 96 
104 105 104 117 117 118 122 124 117 
121 118 111 113 113 109 111 109 106 
110 108 102 109 108 121 117 121 120 
108 111 114 119 102.407 101.092 102.949 106 104 
105 114 104 100.552 101 100.562 100.917 112 111 
117 112 116 113 111 122 122 117 122 
119 123 127 116 114 120 115 116 120 
120 122 115 120 116 117 122 122 113 
110 113 114 122 120 111 98 112 106 
92 95 95 93 95 97 97 90 92 
94 90 93 99.927 100.815 102 104.04 107.98 113.538 
113 105 105 103 95 98 117 112.149 99 
99 100 99 138 137 103 124 124 130 
119 129 135 130 131 134 125 133 137 
139 120 129 116 132 117 127 133 125 
115 112 118 120 104 97 103 115 110 
112 120 117 111 107 101 113 107 122 
126 122 108 114 105 109 107 117 113 
126 133 144 140 114 117 110 114 118 
120 117 125 135 128 117 105 111 115 
116 115 114 112 99 106 117 121 123 
116 125 115 126 131 127 124 130 122 
119 120 116 110 113 115 116 110 109 
109 108 110 109 113 116 109 111 108 
116 116 117 117 110 122 117 118 111 
111 111 109 110 110 117 126 117 118 
122 127 99 102 108 112 113 111 107 
113 105 112 106 108 103 100 104 102 
101 104 98 96 96 105 102 101 108 
102 109 115 109 116 108 109 108 109 
115 119 118 115 120 120 119 117 109 
98 101 100 100 101 103 107 105 104.015 
105 103.954 103.645 110 116 116 116 113 113 
105.76 102 102 108.576 108 104.091 108 112 116 
112 111 113 111 115 113 112 124 119 
111 123 119 114 122 113 123 128 125 
100 100 112 108 116 97 94 97 98 
96 98 97 100 100 96 99 101 98 
103 100 97 106.015 101.02 105 92 94 97 
94 94 97 144 149 127 140 99 139 
121 129 119 125 124 131 132 128 126 
129 133 125 127 129 123 109 116 104 
109 106 104 102 116 103 116 126 128 
115 115 112 124 134 139 123 139 139 
134 107 112 115 111 140 135 133 136 
116 114 112 109 117 121 117 120 104 
107 119 116 120 121 118 124 113 114 
112 110 110 116 106 114 113 114 114 
116 118 118 120 110 104 111 105 109 
112 113 114 120 121 126 128 125 134 
127 141 137 112 129 119 130 137 117 
105 124 111 117 117 122 123 125 122 
125 119 120 112 115 109 114 120 112 
106 103 105 115 119 118 115 119 118 
122 118 124 109 103 96 96 101 96 
108 105 105 104 105 97 95 100 104 
109 110 101 103 109 111 113 110 113 
113 110 122 120 124 115 110 111 104 
117 114 108 106 109 105 107 121 116 
116 113 110 105 99.3261 96 92 97 97 
117 114 114 115 112 113 110 100 106 
98.0063 108.952 110.221 105.341 116 115 112 116 112 
106.968 119 118 117 122 122 121 117 110 
109 115 122 113 107 106 112 115 100 
98 100 99 100 100 109.716 110.453 111 108.654 
112 110.78 111 114 109.722 110 110 110 95 
97 103 101 96 100 104 102 100 99.9217 
97.7771 99 100 102 100 95 94 95 98 
113 138 124 130 147 149 143 146 140 
132 125 127 124 128 121 124 134 130 
132 124 124 126 124 122 120 136 130 
144 137 104 116 112 129 123 114 122 
109 118 113 117 123 120 100 102 120 
111 129 115 127 117 129 123 114 119 
121 118 127 105 116 105 109 109 134 
127 120 131 135 136 139 135 139 142 
144 114 122 129 125 117 112 114 114 
116 111 126 121 127 120 118 129 134 
121 139 118 120 126 108 116 119 107 
103 117 118 118 124 124 147 158 150 
131 124 149 141 161 137 136 125 130 
129 136 105 104 106 114 106 121 108 
110 109 112 112 123 114 116 115 116 
120 123 108 105 105 109 100 107 103 
97 100 99 103 106 108 104 105 112 
109 110 99 100 109 111 115 114 113 
114 113 111 112 113 112 109 102 104 
103 102 102 101 110 120 112 112 112 
108 105 109 112 106 107 107 105 105 
99 103 100 111 112 116 116 103 102 
116 118 116 114 126 92 129 124 125 
98.7458 97 99.8632 104 106.886 100 97.5563 94 95 
93 93 95 97.9975 98 98.0009 94.4942 122 127 
125 124 128 112 117 116 98.0291 98 98.036 
97.4715 108 110 101 102 111 93 97 97 
97 104.994 109.986 111 105 105.127 105.011 111 115.518 
120 93 87 94 112.718 115 109.193 105 112 
100 100 102 108 105 98 98 106 108 
105 101 110 111 106 109 100 99 103 
101 106 99 96 93 107 123 140 134 
123 120 117 116 119 119 125 122 122 
121 117 120 142 140 135 127 125 120 
129 114 131 129 126 121 114 126 109 
121 116 113 119 110 105 110 111 117 
124 120 120 126 123 117 122 117 119 
141 140 138 144 139 125 139 113 115 
112 113 122 117 114 113 120 112 112 
110 117 116 117 102 115 125 115 117 
124 116 124 124 126 119 119 121 121 
123 119 145 145 136 123 118 111 117 
115 109 132 139 149 140 138 136 128 
113 110 119 113 111 113 114 114 112 
105 104 107 107 105 117 119 118 123 
124 123 119 124 114 109 123 102 106 
107 107 107 114 106 119 111 113 110 
113 105 107 104 105 105 105 108 118 
117 104 111 107 102 101 102 95 96 
102 102 107 101 108 109 113 114 112 
112 110 110 106 105 110 110 112 97 
93 124 120 119 118 122 114 116 115 
104 106 107 107 98 103 101 100 106 
109 105 104 96 100 107 118 112 118 
137 133 106 132 112 122 92 95 93 
96 117 115 119 122 114 95 95 98 
101 130 94 93 121 116 117 123 128 
95 99 97 96 131 94.1711 96 94.0782 105 
105 98.3894 96.8451 116 119 125 109.306 109.594 109.324 
107 111 114 115 112 113 110.405 86 92 
86 92 115 106 91 104 106 106 106 
110 111 107 106 106 110 111 110 115 
108 113 106 105 110 107 101 111 104 
137 121 92 98 144 141 134 146 138 
125 122 119 118 116 117 116 120 118 
131 125 131 129 125 107 107 108 108 
109 112 118 116 128 114 121 123 122 
120 125 107 120 110 116 120 112 118 
123 119 112 122 131 144 139 142 145 
143 130 136 129 121 118 112 121 123 
117 127 127 113 118 118 128 124 126 
123 121 121 145 128 121 112 119 130 
146 132 129 133 141 142 140 125 133 
142 132 127 113 116 107 114 112 116 
116 114 123 112 112 113 103 105 105 
109 109 109 108 115 115 116 110 104 
106 105 108 107 113 114 108 109 113 
100 99 97 99 108 106 103 107 109 
115 108 97 113 118 107 113 121 121 
116 111 111 115 119 112 113 141 119 
122 119 126 127 130 128 131 94 94 
99 93 96 119 128 123 118 125 93 
91 96 100 99 95 133 141 124 132 
110 115 104 114 111 113 127 115 94 
103 106 96 110 109 105 85 119 80 
81 80 85 82 110 104 108 90 89 
102 98 110 101 106 112 112 119 117 
117 124 117 115 123 116 139 114 114 
100 107 111 111 112 113 119 118 120 
120 119 130 130 127 128 124 115 121 
110 123 121 122 112 111 125 116 121 