# vtk DataFile Version 3.0
vtk output
ASCII
DATASET POLYDATA
POINTS 9 float
170.088 174.849 74.0515 173.305 186.871 61.8148 227.479 188.149 80.5658 
221.558 173.357 97.8769 227.357 163.243 87.4284 207.237 162.549 36.1471 
209.785 176.269 32.5025 236.767 178.985 52.2017 235.724 161.476 57.196 

VERTICES 9 18
1 0 
1 1 
1 2 
1 3 
1 4 
1 5 
1 6 
1 7 
1 8 

POINT_DATA 9
FIELD FieldData 1
seed_label 1 9 double
0 1 2 3 4 5 6 7 8 

