# vtk DataFile Version 4.2
vtk output
ASCII
DATASET POLYDATA
POINTS 13613 float
219.54 163.36 33.8418 218.744 163.327 33.9562 219.054 164.064 33.2288 
217.958 163.353 34.0413 218.179 163.99 33.4295 219.8 164.545 32.8179 
220.398 165.262 32.5565 220.781 164.471 32.9105 221.286 165.154 32.5429 
221.074 163.877 33.4495 220.075 163.915 33.3707 220.436 163.267 33.9232 
219.283 165.107 32.6662 221.863 164.635 32.9211 221.93 163.956 33.4644 
215.531 164.495 33.4211 214.576 164.913 33.1752 215.38 165.144 32.8495 
216.431 164.109 33.7093 215.744 163.801 34.0777 214.937 164.145 33.8293 
216.402 164.711 33.1475 216.288 165.354 32.7158 217.155 164.898 32.8836 
217.752 164.566 33.0371 217.24 164.17 33.4846 217.244 163.597 33.9772 
218.489 164.719 32.8073 222.901 165.09 32.8676 223.794 165.643 32.7217 
223.724 164.92 33.1506 224.463 164.801 33.5646 223.679 164.166 33.686 
212.956 165.265 33.178 212.496 164.749 33.6394 212.217 165.673 32.9516 
211.712 164.929 33.5032 212.868 166.054 32.6834 213.835 165.698 32.7622 
213.248 164.478 33.842 214.738 165.828 32.6589 214.088 164.176 33.9475 
213.768 164.936 33.3526 218.195 165.534 32.63 218.955 165.951 32.5627 
217.396 165.537 32.6469 217.606 166.397 32.5382 218.414 166.659 32.5062 
219.796 165.976 32.5444 220.668 166.236 32.5025 224.636 165.544 33.157 
225.282 165.074 33.9519 225.406 165.819 33.4943 209.35 166.935 32.6181 
210.242 166.969 32.5837 209.899 166.255 32.8867 209.119 166.214 33.088 
210.422 165.847 33.0708 210.741 165.292 33.405 209.788 165.442 33.4928 
210.826 164.725 33.8194 209.888 164.657 34.133 208.724 165.68 33.5561 
210.885 166.355 32.6957 211.415 165.67 33.033 211.201 167.063 32.5414 
211.856 166.462 32.6201 214.266 166.692 32.5531 215.139 166.838 32.5206 
216.749 166.082 32.6025 215.698 166.101 32.6169 216.433 166.826 32.5228 
215.743 167.449 32.5025 217.458 167.32 32.5025 221.395 165.958 32.5025 
221.592 166.892 32.5025 222.297 166.471 32.5303 222.186 165.501 32.6618 
222.989 166.026 32.6458 224.39 166.267 32.6577 224.467 167.223 32.505 
225.087 166.523 32.9233 207.053 165.809 33.9481 206.386 165.545 34.3311 
205.968 166.227 33.9516 206.742 166.431 33.4732 207.238 166.748 33.019 
207.827 165.838 33.6834 207.391 165.056 34.4206 208.229 166.459 33.047 
207.705 167.205 32.6902 208.421 167.338 32.5685 219.974 166.8 32.5025 
220.746 167.263 32.5025 221.33 167.921 32.5025 222.904 167.172 32.5038 
223.628 166.685 32.5355 225.89 166.58 33.325 225.331 167.36 32.674 
226.158 167.41 33.0327 205.127 166.744 33.983 205.949 167.031 33.3588 
205.767 167.875 32.8627 204.944 167.506 33.476 206.667 167.461 32.7962 
210.763 167.818 32.5255 211.843 167.537 32.5025 212.583 167.01 32.5427 
213.368 166.674 32.6051 212.801 167.84 32.5145 213.746 167.55 32.5169 
219.15 167.059 32.5025 218.385 167.537 32.5025 219.314 167.942 32.5025 
220.436 168.209 32.5025 219.941 167.614 32.5025 222.995 168.118 32.5025 
224.113 168.71 32.5025 223.82 167.754 32.5025 224.827 168.191 32.5025 
225.599 168.286 32.5846 204.987 168.284 32.855 204.284 168.157 33.2069 
206.641 168.338 32.6304 206.98 169.088 32.5228 207.767 169.376 32.5025 
207.647 168.156 32.5701 209.087 167.697 32.5025 209.901 167.981 32.5047 
210.191 168.798 32.5025 211.016 168.717 32.5025 208.999 168.381 32.5025 
209.37 169.185 32.5025 211.842 168.361 32.5025 214.654 167.711 32.5025 
213.601 168.405 32.5025 214.475 168.726 32.5025 215.266 168.282 32.5025 
216.061 168.368 32.5025 216.617 167.613 32.5025 218.966 168.499 32.5025 
217.068 168.316 32.5025 217.962 168.265 32.5025 222.129 167.768 32.5025 
221.748 168.972 32.5025 222.496 168.934 32.5025 223.357 169.015 32.5025 
208.369 168.805 32.5025 218.368 168.996 32.5025 216.442 169.183 32.5025 
217.475 169.174 32.5025 219.863 168.813 32.5025 220.894 168.79 32.5025 
226.311 168.499 32.6747 226.899 168.015 33.0512 227.198 168.987 32.7033 
228.112 167.551 34.1386 227.606 167.871 33.5631 228.394 168.35 33.7771 
227.834 168.668 33.1999 226.992 167.285 33.5543 202.843 167.898 34.1337 
202.831 168.545 33.6731 203.721 167.859 33.7112 203.681 168.686 33.0947 
202.887 169.255 33.201 203.098 170.132 32.6258 203.764 169.375 32.7164 
205.666 168.878 32.6242 204.678 169.128 32.6876 205.192 169.912 32.5213 
206.204 169.532 32.5163 210.294 169.649 32.5025 211.186 169.641 32.5025 
213.474 170.159 32.5025 213.624 169.246 32.5025 212.81 169.719 32.5025 
212.002 169.274 32.5025 212.084 170.212 32.5025 212.726 168.729 32.5025 
218.452 169.833 32.5025 219.152 169.446 32.5025 219.974 169.681 32.5025 
220.919 169.6 32.5025 225.396 169.217 32.5069 224.609 169.417 32.5025 
224.879 170.268 32.5025 225.769 170.178 32.5123 226.359 169.389 32.5654 
228.211 169.477 32.9406 228.889 169.032 33.671 201.893 169.099 33.7801 
202.263 169.806 33.0892 201.437 169.736 33.4505 201.744 170.492 32.7878 
202.456 170.785 32.5848 204.099 170.045 32.5207 207.097 170.122 32.5025 
206.101 170.408 32.5025 208.145 170.245 32.5025 208.761 169.756 32.5025 
208.894 170.839 32.5025 209.61 170.135 32.5025 207.688 170.911 32.5025 
216.245 170.25 32.5025 215.491 169.897 32.5025 215.707 170.905 32.5025 
215.439 169.092 32.5025 214.562 169.608 32.5025 214.14 170.434 32.5025 
214.868 170.536 32.5025 216.969 169.918 32.5025 217.747 170.084 32.5025 
217.913 170.824 32.5025 219.088 170.398 32.5025 218.804 171.189 32.5025 
220.582 170.416 32.5025 221.643 170.042 32.5025 222.62 169.919 32.5025 
223.319 170.544 32.5025 223.783 169.83 32.5025 222.163 170.865 32.5025 
224.228 170.875 32.5025 226.781 170.186 32.5496 227.613 169.923 32.5789 
226.176 170.936 32.5025 227.399 170.935 32.5104 228.915 169.765 33.2283 
228.242 170.57 32.5358 228.938 170.446 32.8737 200.884 169.15 34.2409 
200.745 170.11 33.5795 201.125 170.858 32.8933 200.183 170.74 33.5548 
203.946 170.964 32.5025 204.807 170.762 32.5025 210.635 170.521 32.5025 
209.913 171.01 32.5025 214.811 171.378 32.5025 213.776 171.169 32.5025 
216.888 170.864 32.5025 229.606 169.682 33.8502 229.549 170.395 33.3743 
203.151 171.168 32.5386 203.605 171.906 32.507 205.627 171.207 32.5025 
204.631 171.79 32.5025 206.669 171.131 32.5025 211.517 170.778 32.5025 
211.011 171.464 32.5025 210.319 171.844 32.5025 211.956 171.614 32.5025 
212.782 170.919 32.5025 212.757 171.93 32.5025 214.251 171.931 32.5025 
213.499 172.005 32.5025 217.395 172.449 32.5025 218.011 171.689 32.5025 
217.056 171.627 32.5025 219.822 170.873 32.5025 219.543 171.789 32.5025 
220.518 171.478 32.5025 221.239 171.056 32.5025 225.211 171.2 32.5025 
226.738 171.509 32.5025 225.974 171.917 32.5025 225.238 172.165 32.5025 
200.502 171.477 33.0327 199.61 171.596 33.3021 200.085 172.251 32.8198 
199.224 172.493 32.9388 201.154 171.874 32.5844 200.788 172.75 32.5182 
203.075 172.665 32.5025 202.539 171.987 32.536 201.821 172.591 32.5105 
201.911 171.493 32.5792 207.284 171.659 32.5025 206.766 172.317 32.5025 
205.863 171.989 32.5025 207.876 172.297 32.5025 208.293 171.521 32.5025 
209.415 171.656 32.5025 209.775 172.521 32.5025 216.504 172.343 32.5025 
216.162 171.571 32.5025 215.494 171.884 32.5025 215.75 172.745 32.5025 
214.912 172.418 32.5025 221.615 171.808 32.5025 220.956 172.269 32.5025 
221.636 172.944 32.5025 222.261 172.047 32.5025 223.69 171.575 32.5025 
222.869 171.337 32.5025 223.106 172.278 32.5025 222.454 173.008 32.5025 
224.427 171.907 32.5025 224.052 172.74 32.5025 227.439 171.997 32.5025 
228.138 171.615 32.5172 228.956 171.211 32.6937 228.864 171.985 32.6474 
227.958 172.678 32.554 228.986 172.72 32.6912 230.431 171.164 34.0119 
229.662 171.274 33.2185 230.187 171.906 33.6421 230.125 170.496 33.8533 
229.625 172.282 33.0906 205.113 172.674 32.5025 204.065 172.766 32.5025 
204.564 173.513 32.5025 208.793 172.248 32.5025 209.056 173.053 32.5025 
213.375 172.857 32.5025 213.912 173.737 32.5025 214.204 172.899 32.5025 
218.84 172.208 32.5025 218.108 172.658 32.5025 218.842 173.101 32.5025 
220.148 172.339 32.5025 219.667 172.931 32.5025 226.839 172.442 32.5025 
197.604 173.448 32.8007 198.345 173.045 32.8336 197.646 172.647 33.404 
198.511 172.258 33.305 199.111 173.484 32.6391 198.529 174.132 32.548 
199.912 173.122 32.5734 203.34 173.515 32.5025 205.531 173.616 32.5025 
206.346 174.232 32.5025 206.076 172.942 32.5025 206.762 173.416 32.5025 
207.572 173.08 32.5025 208.318 173.404 32.5025 211.357 172.4 32.5025 
210.627 172.833 32.5025 211.609 173.365 32.5025 212.328 172.701 32.5025 
212.76 173.502 32.5025 214.992 173.285 32.5025 220.185 173.586 32.5025 
220.748 173.104 32.5025 220.341 174.375 32.5025 221.266 173.778 32.5025 
225.061 172.883 32.5025 224.715 173.655 32.5025 226.589 173.774 32.5111 
226.105 172.886 32.5025 225.589 173.607 32.5025 227.194 173.241 32.5134 
230.789 173.148 34.232 230.705 172.337 34.1355 230.122 172.985 33.5729 
196.766 173.361 33.3573 197.33 172.071 34.1133 196.764 172.719 33.9969 
196.017 173.951 33.4768 196.603 174.217 33.0165 200.918 174.487 32.5025 
201.194 173.516 32.5025 200.186 173.82 32.5025 199.687 174.467 32.5025 
201.821 174.006 32.5025 202.8 174.329 32.5025 202.369 173.33 32.5025 
202.034 174.871 32.5025 204.026 174.138 32.5025 207.392 174.148 32.5025 
208.307 174.329 32.5025 210.755 173.842 32.5025 211.489 174.314 32.5025 
209.893 173.51 32.5025 210.055 174.495 32.5025 216.511 173.155 32.5025 
217.279 173.366 32.5025 216.458 174.032 32.5025 217.073 174.24 32.5025 
217.993 173.649 32.5025 222.167 174.003 32.5025 221.291 174.532 32.5025 
222.689 174.894 32.5025 223.083 173.995 32.5025 223.273 173.155 32.5025 
223.958 173.81 32.5025 228.977 174.068 32.7712 229.429 173.39 32.9592 
228.452 173.32 32.6427 230.027 173.862 33.5462 197.202 175.006 32.6263 
197.334 174.172 32.729 198.03 174.857 32.5151 204.341 175.038 32.5025 
203.444 174.828 32.5025 205.172 174.353 32.5025 206.126 175.084 32.5025 
205.262 175.255 32.5025 209.143 174.059 32.5025 212.264 174.271 32.5025 
213.201 174.378 32.5025 212.828 175.205 32.5025 213.731 175.524 32.5025 
214.092 174.716 32.5025 215.736 173.739 32.5025 214.901 174.18 32.5025 
214.94 175.132 32.5025 215.893 174.664 32.5025 218.656 173.989 32.5025 
[...]
POINT_DATA 13613
FIELD FieldData 3
scalars 1 13613 float
90 94 90 98 95 85 86 87 89 
90 86 91 88 93 96 100 105 100 
100 103 104 98 97 102 99 100 99 
92 93 96 94 99 98 110 109 108 
110 111 107 112 103 107 110 95 89 
102 98 90 86 88 99 103 101 99 
101 102 99 108 111 105 113 107 99 
108 110 104 108 101 96 100 99 91 
88 87 91 89 89 94 92 100 102 
102 111 117 111 110 101 100 106 102 
102 101 89 93 95 92 99 100 101 
90 100 107 106 103 100 99 104 105 
107 104 104 80 83 81 95 90 99 
97 103 97 88 115 109 100 100 103 
101 101 102 107 106 105 109 107 94 
103 109 96 91 85 87 81 81 91 
98 99 97 103 87 89 83 95 98 
80 89 81 100 102 100 97 95 111 
107 116 108 110 111 112 111 118 107 
102 110 112 116 114 113 108 121 100 
95 99 98 97 83 87 92 90 80 
87 95 109 113 113 114 112 104 99 
104 97 102 98 105 95 91 92 101 
96 109 111 102 89 94 100 100 104 
94 95 96 92 88 96 94 86 85 
92 87 89 86 87 110 108 107 102 
102 102 116 105 111 108 96 93 91 
109 107 102 106 94 122 112 107 112 
119 104 105 98 93 100 96 95 99 
89 87 98 88 91 92 107 112 118 
113 106 117 103 111 111 110 97 106 
109 98 96 102 103 97 107 114 98 
106 95 96 98 99 93 98 95 97 
89 87 82 84 85 81 77 79 85 
83 83 91 78 103 98 102 98 97 
94 90 94 103 99 103 97 99 84 
96 98 98 105 104 103 119 100 106 
117 110 114 113 105 112 112 109 104 
99 90 98 101 97 96 92 98 84 
91 95 79 87 88 81 100 98 102 
104 106 115 124 118 111 118 101 114 
101 108 113 106 103 106 95 93 92 
102 102 111 105 92 93 89 99 97 
101 86 80 81 86 102 99 108 120 
105 119 128 131 96 107 99 102 100 
91 89 87 98 101 100 116 113 95 
109 102 94 107 87 87 88 88 87 
88 87 87 103 104 110 99 104 103 
108 116 111 113 110 115 105 112 97 
94 101 98 99 103 108 89 110 87 
98 87 87 87 89 105 107 94 99 
102 110 96 107 99 94 112 106 94 
91 87 89 87 87 89 87 107 108 
107 106 113 101 104 112 104 110 117 
107 101 113 120 99 109 93 94 94 
100 96 93 97 106 107 102 98 94 
124 110 126 127 116 93 87 88 86 
88 113 107 108 113 101 94 97 103 
104 102 92 106 103 103 110 125 108 
105 88 86 88 114 114 111 110 110 
117 117 115 122 119 111 104 108 106 
98 97 88 97 92 98 101 104 96 
92 93 90 88 88 90 114 115 116 
118 99 87 85 93 88 100 102 103 
115 107 100 101 95 101 103 106 124 
107 141 135 141 138 135 88 95 96 
87 91 91 95 111 115 115 113 118 
126 126 119 97 97 104 97 105 106 
110 94 101 99 103 100 108 98 98 
104 94 93 104 119 125 127 91 94 
89 94 93 116 128 129 126 92 117 
105 95 120 111 119 113 105 94 98 
95 113 111 116 110 112 109 105 95 
98 106 103 98 113 101 111 121 114 
117 120 131 132 145 115 114 124 122 
129 126 125 117 114 118 106 98 105 
106 104 108 107 110 118 106 104 100 
101 120 117 119 116 120 130 113 110 
121 119 114 115 107 108 113 116 114 
113 111 124 117 120 102 101 108 112 
107 114 111 107 113 113 110 111 120 
121 121 118 118 116 114 119 117 112 
118 100 109 106 101 106 119 100 96 
103 97 95 95 95 96 94 93 95 
96 97 94 98 98 96 96 110 105 
104 103 106 101 98 99 101 99 102 
104 102 105 102 100 106 115 106 113 
107 107 106 102 96 92 102 97 106 
101 105 105 113 112 116 119 104 106 
103 103 101 99 102 102 112 107 100 
100 101 99 101 100 105 104 103 98 
98 99 96 106 112 109 88 88 92 
99 89 108 103 100 117 113 94 102 
98 96 101 107 96 101 109 103 110 
110 110 98 90 107 103 107 111 118 
108 112 111 115 88 90 92 87 92 
108 106 107 107 86 84 85 91 86 
88 90 114 115 89 90 90 100 96 
91 91 114 112 115 110 109 107 102 
96 101 98 119 115 114 121 104 120 
126 123 140 140 129 137 112 117 111 
114 111 116 110 111 116 114 115 120 
117 117 106 129 130 115 119 108 111 
118 112 108 104 107 109 109 110 107 
108 105 118 118 113 117 113 110 110 
108 117 126 117 95 97 105 96 94 
98 97 93 92 90 92 95 96 97 
101 107 107 96 96 95 97 97 100 
100 104 110 108 109 107 99 103 95 
98 92 97 91 111 112 109 104 109 
107 109 99 96 98 95 105 103 96 
106 109 111 111 104 107 102 104 106 
106 112 106 115 106 104 104 102 104 
110 105 105 105 105 105 107 107 100 
104 102 103 100 97 101 101 104 99 
103 96 104 111 103 110 105 105 98 
99 96 100 107 113 116 117 96 116 
116 84 93 90 99 104 111 103 96 
107 107 105 107 102 102 96 99 102 
98 103 102 107 96 104 108 104 105 
97 92 96 91 115 117 113 120 121 
86 92 89 93 87 117 115 92 113 
110 93 97 104 94 92 125 126 135 
129 109 119 120 111 131 122 124 129 
120 128 122 127 121 111 118 117 115 
116 124 126 113 121 116 130 125 115 
127 116 109 105 115 114 118 110 110 
113 115 112 114 111 108 109 112 115 
118 117 115 115 116 116 115 111 107 
107 107 105 101 117 119 106 93 98 
99 91 95 102 90 98 105 107 106 
93 92 91 90 96 105 106 101 99 
111 112 110 103 112 107 107 110 98 
106 91 101 89 112 113 108 109 100 
105 100 107 104 105 104 106 101 109 
109 103 108 101 104 102 105 103 110 
109 104 100 99 105 101 94 97 103 
107 107 105 112 100 109 100 94 108 
114 109 99 117 109 115 106 106 107 
103 110 96 104 102 104 100 113 111 
110 118 99 102 115 111 114 110 104 
108 94 103 104 108 98 109 96 98 
101 90 119 122 121 98 91 95 96 
119 102 104 105 128 114 119 137 134 
126 115 119 138 119 128 115 112 120 
120 104 113 106 118 109 107 123 118 
113 112 105 101 102 105 115 116 116 
114 114 114 116 116 107 106 112 108 
100 107 116 109 113 116 120 112 114 
113 107 114 111 113 109 107 102 102 
103 101 100 109 108 103 99 106 107 
108 104 106 95 100 91 95 97 90 
94 86 88 96 94 109 100 97 92 
104 101 100 107 108 109 122 114 115 
90 90 95 94 94 97 96 90 110 
101 103 104 89 109 109 109 112 111 
111 109 111 109 105 111 101 103 103 
111 106 105 108 110 105 107 102 105 
108 120 109 110 110 109 109 105 107 
102 101 107 110 114 115 108 111 110 
103 109 112 112 109 115 100 105 110 
112 118 113 113 111 117 115 115 107 
114 115 120 116 100 105 103 101 109 
107 104 109 108 98 109 107 100 108 
106 111 104 100 109 104 107 107 107 
99 104 104 107 100 96 105 109 102 
112 118 117 114 106 109 117 116 116 
108 105 102 99 110 117 116 113 114 
102 123 117 117 116 121 113 112 122 
121 115 103 119 117 115 121 119 115 
121 123 123 121 121 119 120 118 113 
113 118 102 104 110 104 110 105 109 
109 108 114 102 103 99 101 106 108 
110 120 112 118 120 108 116 116 116 
103 101 99 101 99 107 94 96 97 
99 99 102 105 99 103 110 112 97 
99 94 110 103 108 102 97 102 97 
104 106 105 108 103 110 94 103 109 
99 109 108 116 108 90 105 102 117 
110 103 107 97 101 107 107 107 98 
100 101 108 108 111 112 109 103 107 
105 108 109 109 94 102 102 107 115 
103 112 119 116 114 105 108 107 112 
105 107 108 106 109 114 112 109 111 
112 109 104 110 117 104 107 108 103 
109 107 110 108 114 111 116 115 114 
107 112 103 104 106 106 109 114 111 
95 98 104 91 103 95 114 115 122 
119 104 105 111 127 129 97 101 100 
115 127 122 108 98 109 101 113 120 
116 117 123 120 111 114 110 119 105 
114 111 116 109 116 116 111 110 115 
143 135 132 124 124 113 113 118 120 
135 118 118 102 127 120 123 128 130 
104 101 108 117 124 122 133 119 126 
123 110 110 111 110 109 111 105 102 
106 109 105 104 106 101 105 104 105 
112 110 100 108 101 100 99 101 107 
102 100 111 117 104 100 101 103 102 
101 101 104 107 105 109 103 101 111 
107 99 103 103 113 101 103 101 101 
100 106 97 98 109 110 100 103 100 
99 97 105 110 111 107 111 108 108 
106 107 106 112 112 106 115 103 104 
100 103 124 114 124 116 110 106 108 
108 105 105 118 121 115 116 102 106 
108 113 111 111 112 110 112 110 108 
111 109 120 115 123 116 115 114 114 
112 112 114 112 105 127 124 123 111 
111 110 113 112 123 119 124 117 109 
115 109 112 116 117 108 107 108 109 
105 102 109 104 102 115 113 111 105 
105 108 108 107 101 104 102 113 107 
102 104 102 106 99 108 97 106 112 
110 103 105 108 95 100 95 94 93 
117 94 97 108 117 116 116 111 108 
99 96 99 106 86 95 108 103 96 
94 91 93 95 99 106 110 107 108 
93 97 105 98 102 102 101 105 103 
109 114 118 117 116 116 117 118 120 
116 114 117 105 108 109 117 127 119 
109 106 112 107 101 124 115 124 114 
105 97 108 100 99 112 114 100 100 
115 111 107 101 113 107 112 119 115 
116 121 120 120 121 114 114 109 115 
113 115 112 119 119 120 127 126 128 
128 122 109 108 112 137 139 134 125 
120 122 118 124 117 119 133 121 120 
126 119 124 122 123 122 127 106 112 
107 113 108 113 110 109 104 106 103 
109 113 113 111 114 108 114 108 117 
115 114 115 104 112 111 105 102 109 
113 111 116 116 101 105 100 102 104 
104 100 110 108 97 113 114 110 108 
110 103 105 101 107 103 102 101 97 
107 104 99 99 102 96 103 102 106 
104 104 106 105 105 100 102 100 102 
97 105 102 109 106 108 106 108 99 
100 104 103 110 111 103 109 116 111 
109 103 107 102 102 122 117 124 124 
119 118 114 109 109 110 112 111 109 
107 109 111 108 111 112 110 110 109 
105 102 100 123 115 120 121 106 106 
119 120 116 122 109 101 100 105 109 
108 108 109 106 107 104 118 116 118 
115 107 103 110 108 105 105 113 110 
107 111 105 104 107 99 109 115 115 
94 90 101 95 93 118 119 110 116 
118 111 119 119 121 116 113 116 114 
109 113 105 105 105 110 106 99 110 
108 113 109 106 109 106 115 125 104 
109 113 115 113 124 110 118 115 109 
116 122 116 122 128 111 118 112 137 
126 127 115 118 117 122 127 124 118 
125 123 125 122 133 126 126 116 123 
120 112 121 121 129 126 125 124 115 
111 111 112 111 115 108 112 108 115 
115 124 114 120 118 113 115 117 110 
116 109 106 103 100 99 104 107 108 
103 103 103 106 100 105 105 109 114 
101 96 95 95 102 106 106 107 102 
99 103 101 102 111 111 114 107 105 
112 114 112 108 104 103 103 104 104 
117 120 115 110 108 123 107 109 108 
104 104 109 111 106 108 113 115 117 
116 103 103 102 103 106 119 118 119 
106 105 113 118 105 110 105 103 104 
100 115 113 112 115 109 98 104 103 
98 109 101 97 97 97 97 104 106 
105 111 105 105 102 110 114 111 112 
106 110 113 116 108 105 111 116 112 
104 113 113 118 123 114 120 120 111 
112 116 116 118 118 120 108 117 108 
103 106 101 112 121 107 109 110 111 
106 128 123 109 114 119 115 112 112 
110 122 127 124 111 110 108 134 140 
149 111 109 117 116 126 126 131 139 
137 136 121 125 123 123 121 122 129 
124 124 118 122 116 115 119 120 119 
118 118 117 120 114 110 112 110 113 
101 104 107 110 104 104 105 113 111 
119 115 128 128 133 116 109 104 106 
111 107 113 116 105 97 104 108 99 
104 100 104 93 101 98 114 117 116 
105 110 114 107 96 94 102 106 113 
104 102 106 106 101 105 108 117 101 
116 105 109 114 113 112 108 106 111 
102 104 102 120 118 120 113 115 118 
117 105 113 103 107 101 109 104 105 
103 100 103 105 106 109 104 103 106 
104 102 108 104 106 104 102 107 115 
121 116 104 105 102 105 105 106 109 
100 102 103 106 99 100 100 117 110 
117 99 99 109 101 101 105 100 103 
99 98 98 102 108 103 109 108 108 
112 112 110 115 114 111 113 102 102 
106 109 108 109 103 111 106 113 116 
125 122 126 123 120 114 117 120 125 
123 121 114 117 113 109 125 114 130 
125 110 109 104 123 109 102 105 126 
123 126 117 116 113 106 111 102 114 
125 129 127 117 110 118 118 130 143 
135 118 116 118 125 127 144 138 143 
140 137 132 127 130 125 127 125 122 
124 128 123 120 124 123 125 126 118 
123 118 121 120 117 120 119 122 119 
125 122 101 104 110 132 123 115 113 
108 117 115 117 117 118 118 112 118 
114 121 108 121 126 126 129 118 122 
118 119 128 131 97 99 92 95 93 
96 99 95 107 104 104 109 106 112 
108 112 113 104 106 108 104 106 116 
105 109 110 109 108 101 103 105 102 
107 109 108 115 116 109 107 111 101 
109 109 120 119 116 117 115 117 115 
111 108 116 110 119 112 107 120 118 
120 119 115 111 109 115 111 117 106 
107 115 109 125 120 116 104 105 104 
108 106 118 122 118 115 113 116 114 
111 111 108 116 112 110 111 116 113 
105 108 106 107 102 108 111 111 107 
111 106 114 117 117 107 118 107 111 
109 107 105 103 109 106 104 106 106 
110 104 115 107 106 109 104 108 112 
111 110 110 117 110 108 99 102 107 
111 105 108 95 116 109 110 111 99 
98 108 113 112 111 112 108 110 99 
106 108 118 113 105 118 118 109 118 
113 106 100 97 101 104 100 100 102 
108 103 105 106 104 103 118 102 116 
123 103 116 102 108 113 103 120 122 
117 126 120 113 115 109 117 119 108 
101 99 107 105 104 106 107 106 109 
116 111 109 112 125 124 109 109 104 
110 118 118 116 102 125 111 102 106 
117 106 116 110 116 115 114 117 115 
112 115 104 128 129 125 125 115 107 
101 95 100 97 99 105 102 112 116 
135 138 147 141 119 120 116 113 114 
139 138 117 116 121 125 123 127 119 
118 132 123 122 129 130 123 126 120 
117 119 125 122 115 122 133 124 115 
115 125 111 115 117 114 115 116 116 
112 122 120 123 117 117 119 123 125 
123 128 119 122 122 128 119 107 110 
114 117 113 118 111 112 110 111 100 
98 107 100 104 110 114 105 112 111 
114 113 97 94 98 93 94 105 104 
106 109 108 107 111 108 106 109 110 
108 105 105 107 105 105 103 101 117 
108 106 116 123 124 117 120 113 116 
113 115 115 116 121 105 112 114 114 
115 121 118 111 121 110 110 117 115 
122 100 102 100 104 103 129 122 113 
123 113 107 122 107 113 119 120 108 
123 111 113 119 110 104 111 113 107 
106 109 110 110 110 108 111 109 115 
110 114 116 115 105 109 115 106 106 
111 115 107 121 118 114 107 109 121 
100 103 106 106 108 108 109 110 107 
115 113 104 103 97 99 105 110 113 
108 100 113 108 105 98 98 102 102 
111 106 110 98 110 99 111 110 94 
97 103 115 120 127 112 113 114 114 
110 123 108 108 122 122 111 124 114 
109 113 113 111 118 121 112 113 104 
105 111 116 110 117 118 115 109 134 
112 119 137 139 132 137 134 130 120 
140 133 141 140 126 131 108 137 142 
139 135 130 111 110 117 118 122 126 
129 123 123 124 123 117 120 118 122 
127 131 132 124 121 121 117 114 132 
119 115 124 122 127 120 120 119 122 
123 118 116 118 122 122 134 136 128 
127 136 124 108 107 111 117 114 120 
124 126 126 129 124 115 111 117 112 
117 118 117 115 143 143 140 123 119 
106 101 104 109 106 111 105 111 104 
101 92 112 108 106 110 107 106 104 
103 110 106 102 104 105 102 115 115 
106 107 102 100 102 108 107 108 113 
116 111 112 118 118 114 116 116 102 
104 117 117 121 103 110 121 108 108 
111 111 112 111 108 123 124 122 115 
113 110 114 110 109 109 109 111 109 
113 126 128 107 103 104 105 111 105 
112 112 126 111 113 115 118 113 125 
114 112 109 106 109 105 108 109 115 
116 121 117 117 114 106 104 112 112 
114 102 115 111 111 108 109 109 114 
113 112 118 111 112 115 112 124 116 
132 128 121 129 111 134 133 124 128 
124 134 133 110 112 112 118 123 117 
117 138 137 131 126 122 143 130 135 
149 142 133 144 139 147 149 127 141 
120 116 125 121 125 121 120 123 125 
133 128 120 117 116 115 132 137 134 
117 133 132 129 129 133 126 132 127 
122 125 119 120 120 122 118 123 125 
136 136 145 142 146 150 148 147 120 
121 114 110 115 119 118 118 118 114 
119 116 116 119 116 146 148 148 140 
137 127 130 127 121 112 118 106 108 
111 113 110 115 113 105 107 114 101 
109 116 99 96 104 105 99 93 91 
95 99 110 110 109 106 108 105 106 
99 103 113 115 111 112 112 112 116 
112 113 102 108 103 102 121 125 134 
134 130 129 115 107 109 110 112 109 
114 115 130 126 125 124 125 120 124 
122 117 127 112 114 115 115 126 123 
123 111 122 122 116 112 114 107 105 
115 111 106 117 114 103 130 122 125 
126 125 123 114 114 111 124 108 105 
117 121 102 110 115 103 127 120 123 
121 96 106 98 99 109 117 118 100 
97 103 103 106 111 112 114 113 119 
127 125 116 93 107 103 97 115 112 
104 96 92 113 114 100 106 109 102 
115 123 106 107 100 130 139 131 133 
131 126 115 105 130 118 125 131 129 
132 109 104 118 117 109 130 137 123 
144 143 150 148 119 122 125 116 115 
118 150 149 153 141 153 120 121 140 
124 140 127 123 116 115 116 116 133 
130 133 134 118 118 129 132 138 121 
114 112 111 115 114 110 121 135 132 
138 130 137 129 146 151 115 114 111 
104 108 113 116 112 113 111 110 112 
107 108 108 112 113 115 116 116 116 
114 146 141 141 124 126 103 110 117 
111 104 110 100 97 96 94 105 98 
101 96 105 105 108 113 118 97 95 
120 121 108 106 107 107 97 97 98 
116 113 109 105 113 115 115 116 118 
113 110 114 101 107 103 111 106 103 
102 109 121 117 116 107 112 113 110 
110 113 115 123 117 127 104 104 102 
105 105 112 112 115 117 118 118 117 
126 122 125 125 125 124 123 114 107 
111 109 107 109 130 128 119 114 113 
104 108 107 115 111 108 108 106 109 
112 103 111 109 115 115 103 107 105 
110 110 106 112 108 112 117 112 111 
115 124 122 105 99 127 117 112 104 
110 121 120 125 123 119 119 117 126 
127 127 119 119 119 123 116 115 123 
130 114 121 118 125 123 103 111 95 
95 92 93 92 99 99 119 113 103 
100 99 104 98 102 100 105 125 128 
129 126 115 100 108 99 113 112 131 
129 135 129 126 97 92 127 127 128 
131 131 111 90 127 117 117 117 116 
124 130 124 126 123 163 168 165 162 
129 131 130 131 151 134 123 123 126 
126 128 126 107 114 115 126 120 126 
130 140 133 138 134 129 148 138 106 
106 107 106 110 115 109 115 110 113 
114 135 144 142 149 151 131 127 136 
145 142 129 122 120 123 122 116 118 
103 104 107 103 101 98 98 97 117 
117 106 99 101 108 101 106 110 108 
103 99 124 126 129 108 103 100 101 
98 122 113 113 113 122 124 106 112 
110 114 114 115 113 110 121 123 119 
118 117 116 118 118 113 112 112 106 
102 104 112 118 118 118 114 98 104 
102 99 114 106 109 113 111 117 116 
111 109 117 113 114 115 111 118 112 
105 125 113 113 116 108 102 113 118 
113 112 107 106 108 108 106 107 102 
115 114 116 115 110 112 110 115 119 
114 118 107 125 117 123 120 114 115 
111 117 114 123 120 125 113 122 111 
125 111 117 98 97 109 120 111 132 
127 98 103 98 102 136 132 133 132 
125 138 99 96 100 124 122 125 98 
97 101 90 124 98 99 104 127 124 
122 112 109 107 100 119 129 125 128 
115 95 102 101 114 106 123 122 136 
129 140 142 145 129 126 152 146 152 
165 161 157 151 152 150 123 144 135 
131 143 135 114 112 119 116 130 132 
123 132 125 118 124 126 122 126 128 
132 107 110 115 115 107 107 112 109 
113 118 118 136 133 134 130 124 126 
123 119 120 117 117 121 121 120 104 
111 104 113 110 110 110 110 111 111 
111 107 112 109 104 107 111 111 114 
118 112 97 106 103 123 120 121 110 
111 102 106 107 115 110 119 129 99 
99 108 100 105 116 117 124 114 100 
100 109 108 111 103 103 106 105 105 
109 103 115 125 104 126 99 99 104 
103 109 109 113 114 111 111 109 101 
107 104 106 99 107 114 111 102 103 
103 102 124 119 106 126 123 123 121 
125 105 109 106 103 104 103 105 130 
131 126 127 127 119 104 104 111 107 
107 111 102 106 111 103 99 97 102 
108 109 113 114 105 115 111 109 109 
107 112 108 108 108 111 116 112 102 
105 98 101 102 101 111 118 114 110 
115 111 105 108 106 104 114 110 109 
103 103 107 104 103 108 114 105 108 
108 107 96 111 106 110 112 107 106 
100 94 107 104 114 109 127 105 95 
94 89 122 123 115 98 96 99 97 
112 112 121 126 101 108 100 133 140 
101 107 107 105 99 109 110 130 131 
118 130 106 108 104 109 105 92 100 
101 101 100 107 108 118 126 124 127 
124 130 122 110 103 102 105 101 104 
122 102 104 104 95 100 120 114 102 
96 106 130 101 104 102 107 107 105 
93 98 95 95 104 107 107 105 111 
117 110 128 118 120 99 103 115 118 
113 116 119 127 120 124 124 126 131 
137 117 111 116 121 117 120 113 116 
127 139 134 135 140 144 149 142 144 
150 150 114 145 127 125 118 117 118 
121 121 118 121 121 126 120 119 117 
105 104 109 117 107 108 112 112 109 
117 111 114 119 117 116 117 110 117 
111 116 113 112 113 117 117 115 109 
111 110 108 103 106 101 103 114 103 
125 125 126 123 121 114 115 112 115 
114 117 111 120 113 114 126 129 120 
123 99 109 102 113 112 105 106 105 
102 101 101 102 106 105 101 96 104 
105 104 117 117 118 122 124 117 121 
118 111 113 113 109 111 109 106 110 
108 102 109 108 121 117 121 120 108 
111 114 119 98 106 104 105 114 104 
101 96 100 100 112 111 117 112 116 
113 111 104 107 122 122 117 122 119 
107 123 127 116 114 120 102 113 101 
110 103 115 116 99 102 104 103 110 
104 120 120 122 115 120 116 97 117 
122 122 108 107 108 100 101 113 110 
106 110 100 106 113 114 122 104 110 
116 107 120 111 98 112 106 110 107 
106 108 109 92 95 95 93 106 106 
108 108 95 97 111 97 90 92 94 
90 98 99 98 97 107 103 93 105 
102 113 105 103 95 98 117 99 99 
100 99 138 137 95 101 94 98 103 
124 124 130 119 99 98 129 135 130 
131 134 125 133 137 139 120 129 116 
132 117 127 133 125 105 93 115 112 
118 120 99 105 95 97 101 103 104 
115 110 112 120 117 107 104 111 107 
101 113 107 106 122 126 122 108 114 
105 109 107 117 113 126 133 144 140 
114 117 110 114 118 120 117 125 135 
128 117 105 111 115 116 115 114 112 
99 106 117 121 123 116 125 115 126 
131 127 124 130 122 119 120 116 110 