# vtk DataFile Version 4.2
vtk output
ASCII
DATASET POLYDATA
POINTS 428 float
0.499241 0.0275439 0 0.497332 0.051579 0 0.499988 0.0034447 0 
0.499573 -0.0206625 0 0.497996 -0.0447216 0 0.495261 -0.0686768 0 
0.491374 -0.0924722 0 0.480185 -0.139363 0 0.486345 -0.116053 0 
0.472909 -0.16235 0 0.464532 -0.184959 0 0.455076 -0.207138 0 
0.444561 -0.228835 0 0.433013 -0.25 0 0.421185 -0.269449 0 
0.408485 -0.28834 0 0.394938 -0.306633 0 0.365418 -0.341277 0 
0.380572 -0.324291 0 0.349506 -0.357555 0 0.33287 -0.373092 0 
0.315544 -0.387856 0 0.494268 0.0754942 0 0.490054 0.0992339 0 
0.297564 -0.401816 0 0.278967 -0.414943 0 0.259792 -0.42721 0 
0.470627 0.16885 0 0.46194 0.191342 0 0.4847 0.122743 0 
0.478219 0.145966 0 0.240078 -0.438591 0 0.178121 -0.467197 0 
0.199201 -0.458606 0 0.219867 -0.449064 0 0.453522 0.210518 0 
0.134898 -0.481459 0 0.156672 -0.47482 0 0.434316 0.247729 0 
0.423561 0.265699 0 0.412063 0.283203 0 0.444309 0.229325 0 
0.0905581 -0.491731 0 0.112845 -0.4871 0 0.0680833 -0.495343 0 
0.0227573 -0.499482 0 0.0454674 -0.497928 0 0.399842 0.30021 0 
0.359063 0.347956 0 0.344177 0.362687 0 0.373319 0.332615 0 
0.38692 0.31669 0 -0.0680833 -0.495343 0 -0.0454674 -0.497928 0 
-9.18485e-17 -0.5 0 -0.0227573 -0.499482 0 0.328688 0.376782 0 
-0.0905581 -0.491731 0 0.312621 0.390215 0 -0.178121 -0.467197 0 
-0.156672 -0.47482 0 -0.112845 -0.4871 0 -0.134898 -0.481459 0 
0.296007 0.402964 0 0.278873 0.415006 0 -0.199201 -0.458606 0 
0.261249 0.42632 0 0.243168 0.436886 0 0.22466 0.446686 0 
0.205757 0.455702 0 -0.240078 -0.438591 0 -0.219867 -0.449064 0 
0.186494 0.463918 0 -0.259792 -0.42721 0 -0.297564 -0.401816 0 
-0.278967 -0.414943 0 0.166903 0.471321 0 0.14702 0.477897 0 
0.126879 0.483634 0 0.106515 0.488523 0 0.0859646 0.492555 0 
0.0652631 0.495722 0 -0.33287 -0.373092 0 -0.315544 -0.387856 0 
-0.394938 -0.306633 0 -0.380572 -0.324291 0 -0.365418 -0.341277 0 
-0.349506 -0.357555 0 0.0444472 0.498021 0 0.0235532 0.499445 0 
0.00261798 0.499993 0 -0.0183219 0.499664 0 -0.0392295 0.498459 0 
-0.0600684 0.496379 0 -0.0808019 0.493428 0 -0.443765 -0.230375 0 
-0.433013 -0.25 0 -0.453629 -0.210288 0 -0.408485 -0.28834 0 
-0.421185 -0.269449 0 -0.101394 0.489611 0 -0.121808 0.484936 0 
-0.142008 0.47941 0 -0.161959 0.473043 0 -0.470612 -0.168892 0 
-0.462583 -0.18978 0 0.237388 -0.115076 0 0.236495 -0.118601 0 
0.237887 -0.111475 0 0.235221 -0.122006 0 0.233579 -0.12525 0 
0.23071 -0.129438 0 0.227232 -0.133137 0 0.223228 -0.136259 0 
0.218793 -0.138729 0 -0.181626 0.465846 0 -0.200974 0.457831 0 
-0.488986 -0.104369 0 -0.483826 -0.126144 0 -0.477697 -0.147666 0 
0.237687 -0.104217 0 0.237987 -0.107841 0 0.214031 -0.14049 0 
0.209055 -0.1415 0 -0.21997 0.449014 0 -0.238579 0.439409 0 
-0.256771 0.429032 0 -0.274511 0.417904 0 0.23699 -0.100649 0 
0.203984 -0.141734 0 -0.291771 0.406042 0 -0.308518 0.393468 0 
-0.324724 0.380203 0 -0.341411 0.365293 0 -0.499954 0.00675591 0 
-0.499756 -0.015621 0 -0.498556 -0.0379666 0 -0.496358 -0.0602361 0 
-0.493166 -0.082385 0 0.232626 -0.0907007 0 0.234444 -0.0938494 0 
0.235905 -0.097179 0 0.198936 -0.141188 0 -0.3727 0.333308 0 
-0.387241 0.316298 0 -0.357414 0.349651 0 -0.401006 0.298655 0 
-0.413967 0.280413 0 -0.494549 0.0736263 0 -0.497349 0.0514243 0 
-0.499151 0.0291193 0 0.230473 -0.0877711 0 0.194032 -0.139874 0 
0.189388 -0.137823 0 -0.426099 0.261609 0 -0.437378 0.242282 0 
-0.447781 0.222469 0 -0.457287 0.20221 0 -0.465876 0.181547 0 
-0.473533 0.16052 0 -0.485987 0.117544 0 -0.49076 0.0956808 0 
-0.480241 0.139171 0 0.225269 -0.0827084 0 0.228011 -0.0850962 0 
0.185113 -0.135085 0 0.181309 -0.131722 0 0.178066 -0.127817 0 
0.222281 -0.0806367 0 0.17546 -0.123459 0 0.173553 -0.118754 0 
0.219084 -0.0789062 0 0.215715 -0.077538 0 0.20863 -0.0759503 0 
0.212216 -0.0765487 0 0.172391 -0.113812 0 0.172 -0.10875 0 
0.245154 0.0784637 0 0.24412 0.0732678 0 0.242417 0.0682513 0 
0.240074 0.0635 0 0.237131 0.0590952 0 0.172092 -0.106284 0 
0.245154 0.0890363 0 0.2455 0.08375 0 0.233638 0.0551122 0 
0.229655 0.0516192 0 0.22525 0.048676 0 0.202534 -0.0758423 0 
0.205 -0.07575 0 0.172369 -0.103832 0 0.172827 -0.101407 0 
0.173466 -0.0990231 0 0.24412 0.0942322 0 0.239096 0.105607 0 
0.240898 0.102501 0 0.242417 0.0992487 0 0.220499 0.0463329 0 
0.215482 0.04463 0 0.210286 0.0435965 0 0.200082 -0.0761186 0 
0.197657 -0.0765774 0 0.205 0.04325 0 0.200118 0.0435453 0 
0.195273 -0.0772161 0 0.192944 -0.0780312 0 0.174281 -0.0966937 0 
0.175268 -0.0944318 0 0.237026 0.10854 0 0.234705 0.111279 0 
0.195308 0.0444269 0 0.1885 -0.0801712 0 0.190682 -0.079018 0 
0.176421 -0.09225 0 0.177734 -0.0901604 0 0.232151 0.113802 0 
0.226423 0.11812 0 0.229383 0.116088 0 0.190638 0.0458818 0 
0.186179 0.047889 0 0.18641 -0.0814841 0 0.184425 -0.0829496 0 
0.182554 -0.0845593 0 0.180809 -0.0863043 0 0.1792 -0.0881748 0 
0.181993 0.0504192 0 0.223295 0.119882 0 0.216634 0.122543 0 
0.220023 0.12136 0 0.178144 0.0534353 0 0.174685 0.0568935 0 
-0.260261 -0.128191 0 -0.265 -0.125981 0 -0.25 -0.13 0 
-0.255209 -0.129544 0 0.171669 0.0607434 0 -0.269284 -0.122981 0 
-0.272981 -0.119284 0 -0.239739 -0.128191 0 -0.244791 -0.129544 0 
0.209607 0.123987 0 0.213153 0.123421 0 0.169139 0.0649287 0 
0.167132 0.0693885 0 -0.275981 -0.115 0 -0.277816 -0.111238 0 
-0.235 -0.125981 0 0.206026 0.124237 0 0.202437 0.124169 0 
0.165677 0.0740577 0 0.164795 0.0788683 0 -0.227019 -0.119284 0 
-0.230716 -0.122981 0 0.198867 0.123783 0 0.195346 0.123083 0 
-0.279109 -0.107258 0 -0.279836 -0.103136 0 -0.224019 -0.115 0 
-0.221809 -0.110261 0 0.191901 0.122073 0 0.188558 0.120762 0 
0.1645 0.08375 0 0.164659 0.0873366 0 -0.279982 -0.098953 0 
-0.279544 -0.0947906 0 -0.278532 -0.0907295 0 -0.312589 0.309046 0 
-0.310667 0.311453 0 -0.318297 0.298175 0 -0.317185 0.301048 0 
-0.319188 0.295226 0 -0.319852 0.292218 0 -0.320285 0.289167 0 
0.185345 0.119161 0 0.182287 0.117281 0 0.176727 0.112748 0 
0.179406 0.115138 0 0.172055 0.107306 0 0.17427 0.110131 0 
0.170098 0.104295 0 0.168416 0.101124 0 0.167021 0.0978159 0 
0.165135 0.090895 0 0.165925 0.0943973 0 -0.276964 -0.0868489 0 
-0.274871 -0.0832242 0 -0.272294 -0.0799261 0 -0.220456 -0.105209 0 
-0.22 -0.1 0 -0.284898 0.325203 0 -0.281521 0.325471 0 
-0.28824 0.324653 0 -0.291525 0.323826 0 -0.294729 0.322727 0 
-0.300806 0.319747 0 -0.29783 0.321364 0 -0.303637 0.317887 0 
-0.306303 0.315796 0 -0.308567 0.313708 0 -0.314323 0.306499 0 
-0.315857 0.303828 0 -0.220164 -0.0968641 0 -0.220656 -0.0937627 0 
-0.221468 -0.0907295 0 -0.26186 0.321211 0 -0.258898 0.319568 0 
-0.268144 0.323726 0 -0.26495 0.3226 0 -0.271422 0.324581 0 
-0.274759 0.32516 0 -0.278134 0.325457 0 -0.320485 0.286093 0 
-0.320451 0.283013 0 -0.320183 0.279944 0 -0.319683 0.276904 0 
-0.269284 -0.0770187 0 -0.265898 -0.0745586 0 -0.248715 0.31072 0 
-0.246675 0.308015 0 -0.250974 0.313244 0 -0.253435 0.315571 0 
-0.256083 0.317684 0 -0.318952 0.273911 0 -0.317997 0.270982 0 
-0.258269 -0.0711621 0 -0.254175 -0.070292 0 -0.262202 -0.0725936 0 
-0.225729 -0.0823664 0 -0.224019 -0.085 0 -0.222594 -0.0877979 0 
-0.310075 0.257876 0 -0.31205 0.26024 0 -0.313839 0.262748 0 
-0.315433 0.265385 0 -0.316821 0.268135 0 -0.25 -0.07 0 
-0.246864 -0.0701643 0 -0.244868 0.30515 0 -0.243308 0.302144 0 
-0.242003 0.299018 0 -0.240965 0.295794 0 -0.307926 0.255668 0 
-0.305616 0.25363 0 -0.243763 -0.0706556 0 -0.227706 -0.0799261 0 
-0.229926 -0.0777057 0 -0.232366 -0.0757295 0 -0.240199 0.292494 0 
-0.239712 0.289142 0 -0.239507 0.285761 0 -0.276616 0.244642 0 
-0.28 0.2445 0 -0.286139 0.244968 0 -0.289164 0.24555 0 
-0.292136 0.246361 0 -0.295038 0.247396 0 -0.297853 0.248647 0 
-0.300565 0.25011 0 -0.303157 0.251774 0 -0.240729 -0.0714683 0 
-0.237798 -0.0725936 0 -0.235 -0.0740192 0 -0.239585 0.282374 0 
-0.239946 0.279006 0 -0.240587 0.27568 0 -0.241504 0.272419 0 
-0.24269 0.269246 0 -0.244137 0.266183 0 -0.245834 0.263252 0 
-0.247771 0.260473 0 -0.249933 0.257866 0 -0.252306 0.255448 0 
-0.254872 0.253238 0 -0.257615 0.251249 0 -0.260513 0.249496 0 
-0.263548 0.247992 0 -0.266698 0.246747 0 -0.269941 0.245769 0 
-0.273255 0.245066 0 -0.283078 0.244617 0 -0.282173 0.0676568 0 
-0.282908 0.0725339 0 -0.280719 0.0629437 0 -0.278579 0.0585 0 
-0.2758 0.0544248 0 -0.282173 0.0823432 0 -0.280719 0.0870563 0 
-0.282908 0.0774661 0 -0.272446 0.0508093 0 -0.26859 0.0477341 0 
-0.264318 0.045268 0 -0.278579 0.0915 0 -0.2758 0.0955752 0 
-0.259727 0.0434661 0 -0.272446 0.0991907 0 -0.26859 0.102266 0 
-0.264318 0.104732 0 -0.25 0.042 0 -0.254918 0.0423686 0 
-0.254918 0.107631 0 -0.25 0.108 0 -0.259727 0.106534 0 
-0.243562 0.0426341 0 -0.247275 0.107887 0 -0.244568 0.10755 0 
-0.226665 0.0516655 0 -0.231666 0.0475615 0 -0.237371 0.044512 0 
-0.222562 0.0566662 0 -0.241899 0.10699 0 -0.239285 0.106212 0 
-0.217634 0.068562 0 -0.219512 0.0623714 0 -0.21745 0.0804316 0 
-0.217113 0.0777251 0 -0.217 0.075 0 -0.236744 0.105221 0 
-0.234294 0.104023 0 -0.231951 0.102626 0 -0.218788 0.0857151 0 
-0.21801 0.083101 0 -0.22765 0.0992789 0 -0.225721 0.0973503 0 
-0.229731 0.101042 0 -0.223958 0.095269 0 -0.222374 0.0930493 0 
-0.220977 0.0907063 0 -0.219779 0.0882559 0 
METADATA
INFORMATION 2
NAME L2_NORM_RANGE LOCATION vtkDataArray
DATA 2 0.180964 0.500001 
NAME L2_NORM_FINITE_RANGE LOCATION vtkDataArray
DATA 2 0.180964 0.500001 

LINES 428 1284
2 0 1 
2 2 0 
2 3 2 
2 4 3 
2 5 4 
2 6 5 
2 7 8 
2 8 6 
2 9 7 
2 10 9 
2 11 10 
2 12 11 
2 13 12 
2 14 13 
2 15 14 
2 16 15 
2 17 18 
2 18 16 
2 19 17 
2 20 19 
2 21 20 
2 1 22 
2 22 23 
2 24 21 
2 25 24 
2 26 25 
2 27 28 
2 29 30 
2 30 27 
2 23 29 
2 31 26 
2 32 33 
2 33 34 
2 34 31 
2 28 35 
2 36 37 
2 37 32 
2 38 39 
2 39 40 
2 35 41 
2 41 38 
2 42 43 
2 43 36 
2 44 42 
2 45 46 
2 46 44 
2 40 47 
2 48 49 
2 50 48 
2 47 51 
2 51 50 
2 52 53 
2 54 45 
2 55 54 
2 53 55 
2 49 56 
2 57 52 
2 56 58 
2 59 60 
2 61 57 
2 62 61 
2 60 62 
2 63 64 
2 58 63 
2 65 59 
2 64 66 
2 66 67 
2 67 68 
2 68 69 
2 70 71 
2 71 65 
2 69 72 
2 73 70 
2 74 75 
2 75 73 
2 72 76 
2 76 77 
2 77 78 
2 79 80 
2 80 81 
2 82 83 
2 83 74 
2 78 79 
2 84 85 
2 85 86 
2 86 87 
2 87 82 
2 88 89 
2 81 88 
2 89 90 
2 90 91 
2 91 92 
2 92 93 
2 93 94 
2 95 96 
2 97 95 
2 98 84 
2 99 98 
2 96 99 
2 94 100 
2 100 101 
2 101 102 
2 102 103 
2 104 105 
2 106 107 
2 108 106 
2 109 110 
2 107 109 
2 110 111 
2 111 112 
2 112 113 
2 113 114 
2 103 115 
2 115 116 
2 117 118 
2 118 119 
2 119 104 
2 105 97 
2 120 121 
2 121 108 
2 114 122 
2 122 123 
2 116 124 
2 124 125 
2 125 126 
2 126 127 
2 128 120 
2 123 129 
2 127 130 
2 130 131 
2 131 132 
2 132 133 
2 134 135 
2 136 137 
2 137 138 
2 138 117 
2 139 140 
2 140 141 
2 141 128 
2 129 142 
2 143 144 
2 133 145 
2 145 143 
2 146 147 
2 144 146 
2 148 149 
2 150 134 
2 149 150 
2 135 136 
2 151 139 
2 142 152 
2 152 153 
2 154 155 
2 155 156 
2 147 154 
2 157 158 
2 156 157 
2 158 159 
2 160 161 
2 162 160 
2 161 148 
2 163 164 
2 164 151 
2 153 165 
2 165 166 
2 166 167 
2 159 162 
2 168 163 
2 169 170 
2 167 169 
2 171 168 
2 172 171 
2 173 174 
2 174 172 
2 175 176 
2 170 175 
2 177 178 
2 178 179 
2 180 181 
2 176 182 
2 183 184 
2 181 185 
2 185 186 
2 186 187 
2 188 189 
2 189 173 
2 182 190 
2 190 191 
2 191 192 
2 193 183 
2 194 195 
2 195 196 
2 196 193 
2 197 198 
2 187 197 
2 198 199 
2 200 188 
2 201 200 
2 199 202 
2 202 203 
2 204 201 
2 205 204 
2 192 206 
2 206 207 
2 208 194 
2 209 208 
2 203 210 
2 211 212 
2 212 205 
2 207 213 
2 213 214 
2 215 209 
2 216 217 
2 217 215 
2 218 219 
2 210 218 
2 220 211 
2 221 220 
2 222 221 
2 223 222 
2 214 224 
2 224 223 
2 219 225 
2 226 216 
2 227 228 
2 228 226 
2 225 229 
2 229 230 
2 231 232 
2 233 234 
2 234 231 
2 230 235 
2 232 236 
2 236 237 
2 238 239 
2 239 233 
2 240 241 
2 241 227 
2 242 243 
2 235 242 
2 237 244 
2 244 245 
2 246 238 
2 247 240 
2 248 247 
2 249 250 
2 243 249 
2 251 252 
2 252 246 
2 253 248 
2 254 253 
2 245 255 
2 255 256 
2 257 251 
2 258 257 
2 259 254 
2 260 259 
2 250 261 
2 261 262 
2 263 264 
2 256 263 
2 264 265 
2 266 267 
2 268 269 
2 270 268 
2 271 270 
2 272 271 
2 273 260 
2 274 273 
2 275 276 
2 276 274 
2 277 278 
2 278 275 
2 279 277 
2 280 279 
2 281 280 
2 262 282 
2 282 283 
2 283 281 
2 265 284 
2 284 285 
2 285 286 
2 287 258 
2 288 287 
2 289 290 
2 291 289 
2 292 291 
2 293 292 
2 294 295 
2 296 294 
2 297 296 
2 298 297 
2 267 298 
2 299 266 
2 300 299 
2 269 300 
2 301 288 
2 302 301 
2 303 302 
2 304 305 
2 306 307 
2 307 304 
2 308 306 
2 309 308 
2 290 310 
2 310 309 
2 311 272 
2 312 311 
2 313 312 
2 314 313 
2 286 315 
2 315 316 
2 317 318 
2 319 317 
2 320 319 
2 321 320 
2 305 321 
2 322 314 
2 323 322 
2 324 325 
2 316 326 
2 326 324 
2 327 328 
2 329 303 
2 328 329 
2 330 331 
2 331 332 
2 333 334 
2 334 323 
2 332 333 
2 335 336 
2 325 335 
2 318 337 
2 337 338 
2 338 339 
2 339 340 
2 341 330 
2 342 341 
2 336 343 
2 344 327 
2 345 344 
2 346 345 
2 340 347 
2 348 349 
2 350 351 
2 352 353 
2 353 354 
2 355 356 
2 354 355 
2 357 358 
2 356 357 
2 358 342 
2 343 359 
2 359 360 
2 361 346 
2 360 361 
2 347 348 
2 349 362 
2 362 363 
2 364 365 
2 366 367 
2 365 366 
2 367 368 
2 369 370 
2 368 369 
2 370 371 
2 371 372 
2 372 373 
2 373 374 
2 374 375 
2 375 376 
2 376 377 
2 377 378 
2 378 350 
2 379 352 
2 351 379 
2 380 381 
2 382 380 
2 383 382 
2 384 383 
2 385 386 
2 387 385 
2 381 387 
2 388 384 
2 389 388 
2 390 389 
2 391 392 
2 386 391 
2 393 390 
2 394 395 
2 395 396 
2 392 394 
2 397 398 
2 398 393 
2 399 400 
2 396 401 
2 401 399 
2 402 397 
2 400 403 
2 403 404 
2 405 406 
2 406 407 
2 408 405 
2 407 402 
2 409 410 
2 411 412 
2 412 408 
2 404 409 
2 413 414 
2 415 411 
2 414 415 
2 416 417 
2 410 416 
2 417 418 
2 419 420 
2 420 413 
2 421 422 
2 418 423 
2 423 421 
2 422 424 
2 424 425 
2 425 426 
2 427 419 
2 426 427 
2 184 177 
2 179 180 
2 363 364 
2 295 293 

CELL_DATA 428
FIELD FieldData 1
region 1 428 double
1 1 1 1 1 1 1 1 1 
1 1 1 1 2 2 2 2 2 
2 2 2 1 1 2 2 2 1 
1 1 1 2 2 2 2 4 2 
2 4 4 4 4 2 2 2 2 
2 4 4 4 4 4 2 2 2 
2 4 2 4 2 2 2 2 4 
4 2 4 4 4 4 2 2 4 
2 2 2 4 4 4 4 4 2 
2 4 2 2 2 2 4 4 4 
4 4 4 4 3 3 2 2 2 
4 4 4 4 3 1 1 1 1 
2 2 2 2 4 4 3 3 3 
3 1 1 2 2 4 4 4 4 
1 2 4 4 4 3 3 3 3 
3 1 1 1 2 3 3 3 3 
3 3 3 3 3 1 2 2 3 
3 3 3 3 3 3 3 3 1 
1 2 2 2 3 1 2 2 1 
1 1 1 2 2 1 1 1 5 
1 1 1 1 5 1 5 5 5 
1 4 4 1 1 1 1 5 5 
1 5 5 5 5 5 4 4 5 
5 5 5 5 4 4 4 5 5 
5 5 5 5 5 5 5 4 4 
4 5 5 2 2 2 5 2 2 
2 2 4 4 5 5 3 3 2 
4 4 5 5 2 2 4 4 3 
3 2 2 4 4 5 4 3 3 
3 3 3 3 3 3 4 4 4 
4 4 4 4 4 4 4 4 4 
3 3 3 2 2 4 4 4 4 
4 4 4 3 3 3 3 3 5 
5 5 4 4 4 4 4 4 4 
3 3 3 3 3 3 4 4 4 
4 4 3 3 3 3 3 5 5 
5 3 3 3 3 3 5 3 4 
4 4 4 3 3 5 5 5 5 
4 4 4 3 3 3 3 3 3 
3 5 5 5 5 4 4 4 4 
4 4 4 4 4 4 4 4 4 
4 4 4 4 4 3 3 3 3 
3 3 3 3 3 3 3 3 3 
3 3 3 3 3 3 3 3 3 
3 5 4 4 5 5 5 5 4 
5 5 4 4 5 4 4 4 4 
4 4 4 4 4 4 4 4 4 
4 1 1 4 4 
METADATA
INFORMATION 0

POINT_DATA 428
FIELD FieldData 1
scalars 1 428 double
107 111 106 111 102 104 94 98 97 
105 106 97 94 101 92 88 99 109 
105 106 100 101 117 119 106 110 117 
103 96 115 109 117 116 127 119 91 
101 105 94 94 90 92 115 105 110 
123 123 90 101 101 101 97 137 139 
126 133 100 122 108 125 123 125 129 
108 105 144 97 92 96 104 138 147 
106 137 134 140 112 113 111 110 107 
106 137 137 126 131 132 139 109 115 
113 113 109 109 115 132 132 127 133 
136 113 99 102 107 112 126 101 101 
100 102 104 104 107 99 103 102 108 
102 105 113 98 99 104 106 101 100 
104 108 102 109 102 96 100 106 111 
110 105 100 99 105 103 106 112 104 
97 107 94 95 120 115 112 106 116 
122 98 98 95 96 105 107 105 111 
112 108 104 116 112 116 107 123 122 
116 118 114 118 121 124 103 102 99 
97 117 120 121 113 123 134 133 121 
118 121 120 114 127 128 127 127 125 
130 121 127 124 122 115 121 117 105 
94 131 134 118 106 110 96 103 141 
143 146 127 132 107 107 106 106 105 
136 135 137 132 143 143 121 125 126 
119 136 119 116 122 123 135 138 128 
117 120 123 118 133 124 111 108 104 
112 129 131 121 117 106 110 112 100 
109 109 122 125 114 111 111 123 137 
114 111 113 100 103 105 102 98 107 
100 114 119 112 119 115 109 118 114 
115 112 109 115 114 116 118 118 107 
118 118 112 118 118 121 120 102 103 
115 107 117 115 111 117 122 115 106 
117 116 99 97 102 103 104 104 106 
117 121 122 118 124 124 103 106 108 
104 104 123 111 94 94 94 99 103 
101 112 111 111 111 99 91 96 93 
101 106 103 102 107 107 103 103 112 
112 111 108 104 98 96 102 95 98 
100 104 110 105 97 106 108 100 96 
89 102 99 92 100 104 104 96 100 
93 107 106 107 98 100 117 103 110 
100 99 110 99 99 97 101 101 96 
94 97 98 99 93 93 106 96 104 
99 104 104 101 96 84 101 86 87 
92 92 90 85 78 
METADATA
INFORMATION 0

