# vtk DataFile Version 4.2
vtk output
ASCII
DATASET POLYDATA
POINTS 20000 float
204.113 192.185 69.5831 165.5 193.768 56.4223 228.003 186.846 58.4496 
217.993 173.649 32.5025 175.651 180.874 52.8209 162.634 176.561 77.9444 
231.84 166.759 39.8609 242.381 195.604 70.8929 175.303 169.41 54.0677 
226.038 188.848 86.1075 222.969 156.325 46.28 235.696 176.445 43.6161 
201.155 191.738 67.2788 168.525 163.946 71.1822 213.78 167.894 90.6454 
217.867 188.78 75.4119 228.19 157.831 101.951 225.163 182.382 73.9264 
226.721 183.699 41.3422 238.072 193.594 73.7074 209.492 174.627 99.3201 
238.448 172.077 71.593 235.218 161.437 103.974 235.387 159.176 106.897 
236.399 150.571 94.9559 226.955 157.645 103.181 177.057 166.312 55.7776 
226.003 175.845 82.7907 223.904 185.468 65.4358 208.871 158.096 69.5751 
221.677 176.941 87.4117 230.545 159.873 85.7195 224.827 170.568 87.5402 
197.925 158.827 77.216 236.816 165.163 105.266 215.531 164.495 33.4211 
186.506 173.451 85.6796 183.876 160.741 70.7308 160.677 161.357 80.4359 
211.252 158.559 86.0076 211.254 171.685 100.082 237.231 171.302 50.3473 
223.136 187.056 46.8984 156.433 164.292 79.015 234.627 137.747 88.6427 
230.612 164.228 41.6545 183.499 189.353 64.9067 209.288 157.068 44.5495 
237.807 163.018 60.4759 222.347 160.287 101.903 199.411 160.84 87.9239 
221.29 149.707 97.2393 240.618 168.946 63.0811 163.823 195.042 58.3179 
198.286 176.297 93.541 236.889 174.362 47.1883 172.061 179.702 66.3571 
193.386 166.529 90.3203 182.208 172.343 81.8142 188.301 159.087 55.6387 
225.589 166.174 100.384 234.485 174.372 97.5638 229.606 169.682 33.8502 
197.043 184.407 43.6162 209.913 171.01 32.5025 211.433 167.132 94.171 
222.811 178.09 90.4973 225.707 189.323 84.5014 199.167 158.165 72.7169 
196.98 190.547 74.9225 187.824 171.007 41.0161 193.972 165.593 90.2697 
172.191 193.815 59.706 238.828 145.581 91.1429 230.431 171.164 34.0119 
186.479 162.509 47.0224 162.568 169.91 85.4713 178.05 164.945 56.5831 
193.237 157.091 49.2952 223.584 182.569 80.619 231.346 164.639 42.8821 
188.357 162.559 45.3077 201.58 190.588 81.2867 228.13 160.642 44.9056 
241.134 173.377 58.7429 237.568 180.393 62.1908 191.826 157.757 70.5088 
211.655 157.576 74.006 170.092 163.61 77.1298 220.614 187.023 66.8347 
210.559 158.106 83.7079 237.071 174.518 47.8891 236.785 162.492 68.4985 
224.883 183.664 71.9243 204.323 180.756 93.6854 234.892 180.796 51.278 
227.482 157.931 77.7051 204.065 172.766 32.5025 163.113 194.922 58.6014 
198.659 157.488 61.9356 204.702 190.912 55.9793 163.634 172.293 83.7049 
222.826 180.957 76.7879 194.17 157.094 66.1615 227.752 179.631 78.2135 
234.742 166.218 103.896 238.809 190.401 77.7275 234.099 162.936 77.6781 
188.572 172.385 40.9884 217.413 159.17 38.0771 231.491 154.214 85.8654 
168.354 170.623 83.7476 239.023 191.937 76.394 208.153 183.874 36.4164 
205.061 159.118 41.0102 223.707 164.064 95.6486 191.23 160.91 79.7305 
210.983 159.098 39.2185 241.745 190.769 68.9548 195.347 190.131 74.8953 
229.047 163.407 103.424 218.804 171.189 32.5025 227.019 159.728 43.5166 
237.207 149.895 93.5255 188.316 184.256 81.2716 193.166 167.414 39.9974 
225.706 154.975 71.1355 214.797 182.015 33.6308 154.423 165.904 87.3454 
234.814 168.065 46.9087 157.188 163.022 89.5394 203.16 164.009 92.9863 
229.981 162.097 47.151 169.881 185 68.7546 232.442 157.405 93.4507 
228.449 157.621 84.5636 201.821 172.591 32.5105 224.724 159.042 40.353 
218.528 156.539 104.282 237.35 165.387 106.754 219.933 188.396 84.6333 
220.828 177.974 82.9455 198.383 184.833 43.1737 193.391 176.501 36.1928 
226.255 176.37 94.391 225.469 175.725 32.5145 211.949 168.186 97.5937 
178.801 162.882 59.3596 204.887 156.448 54.5132 212.302 167.335 94.0824 
160.7 161.943 78.1328 226.108 184.718 67.2844 236.19 161.994 70.0231 
182.514 160.982 57.2188 222.815 170.694 93.3088 191.639 189.501 70.0078 
228.315 161.483 96.0385 210.826 164.725 33.8194 187.705 187.853 54.8659 
233.553 139.222 94.8715 215.693 182.823 34.6548 204.941 191.778 58.7377 
218.97 187.844 85.8342 215.215 178.702 96.3281 212.765 156.837 79.523 
213.06 190.659 71.336 220.13 155.626 59.9634 190.304 188.99 57.7369 
192.036 157.475 65.7927 209.836 157.811 73.7417 210.932 160.921 36.8042 
219.436 175.375 85.0769 195.504 171.813 92.4539 226.933 160.448 41.7216 
239.794 149.148 90.4487 207.435 187.585 43.9996 180.159 162.549 69.0938 
200.073 162.715 39.0168 216.539 153.94 86.1366 216.608 187.447 43.5072 
234.142 153.42 86.1636 210.721 171.424 99.4498 217.494 173.92 102.115 
238.363 166.333 69.5972 176.936 163.85 61.664 208.78 188.266 48.062 
232.144 185.521 58.0836 175.302 190.073 56.6573 229.226 148.661 99.5152 
204.818 182.281 93.1079 217.619 179.04 95.715 191.013 174.444 89.3988 
227.207 146.518 91.2599 218.953 154.606 84.3086 234.629 160.255 65.0564 
158.477 173.835 72.184 217.26 153.676 86.0045 194.614 159.053 76.4503 
227.485 159.442 47.7716 237.262 180.317 56.3592 221.446 150.292 90.7469 
192.848 173.675 38.066 233.001 153.373 97.8579 206.139 184.455 91.1325 
210.02 188.45 51.8683 217.399 153.323 97.4826 200.447 157.501 63.2074 
233.81 186.126 74.0184 198.983 190.125 55.9285 218.351 156.251 74.8162 
198.208 183.665 90.9573 221.821 188.002 53.6903 173.931 175.827 56.8092 
241.997 155.166 87.507 204.984 157.543 62.2736 235.346 185.721 77.1395 
213.194 157.845 90.8053 202.275 157.521 62.2199 199.665 191.844 59.2494 
180.872 164.372 74.2419 192.414 166.432 89.2739 218.905 155.649 44.4771 
239.43 157.522 89.5109 155.966 169.565 80.801 218.63 165.524 89.3016 
158.743 174.495 72.0922 229.001 181.148 75.2021 229.981 159.391 96.593 
174.681 168.187 55.8676 231.703 168.274 106.468 175.332 190.367 65.2882 
194.229 157.506 56.7779 160.302 162.69 76.6451 225.334 151.035 85.2664 
220.952 185.524 40.401 217.73 152.557 89.617 220.484 174.745 101.751 
189.352 183.763 46.9929 239.959 169.57 65.0217 214.829 181.327 33.0421 
193.809 157.461 63.8536 235.069 169.961 42.7438 239.592 171.455 53.3173 
200.481 167.228 93.7476 215.819 153.97 49.8689 202.427 158.587 74.7963 
199.21 190.719 76.5336 236.767 178.985 52.2017 212.415 189.333 81.593 
193.539 157.421 68.809 194.329 190.088 66.8906 175.698 188.449 68.3177 
215.535 157.158 40.6975 212.497 175.529 100.289 193.377 177.252 90.2908 
233.002 177.082 80.2686 233.477 159.683 71.5188 232.94 171.253 37.4368 
216.414 187.807 47.3342 206.435 188.684 85.505 175.505 182.259 72.5594 
237.298 152.445 94.65 223.257 187.359 48.0898 237.318 170.201 76.3051 
167.312 187.828 56.6528 188.555 176.667 87.8649 236.41 176.139 46.0541 
233.653 159.656 57.5021 241.595 192.148 75.3621 193.102 175.921 37.2579 
214.809 179.161 95.6354 232.88 160.251 74.7378 231.004 191.452 73.0214 
213.368 181.665 33.2598 215.37 185.892 39.2861 218.482 154.381 50.7934 
161.24 174.266 79.8793 174.478 192.472 61.4331 227.13 183.523 87.2505 
174.178 169.768 54.9683 178.366 182.751 75.7728 207.269 155.792 48.9802 
197.962 177.689 32.5025 236.453 171.345 80.8717 191.588 189.463 70.7444 
156.957 162.581 81.6925 167.413 193.504 56.5914 181.501 185.278 53.4233 
198.673 178.369 32.5307 186.12 185.896 77.4866 217.626 154.163 102.444 
213.024 156.14 61.9804 238.025 164.868 68.3178 229.78 149.527 84.392 
203.692 161.399 38.3925 201.217 191.907 61.5037 169.156 168.944 65.4367 
179.189 176.676 48.2298 179.439 186.294 54.9448 228.658 169.631 95.1337 
231.927 159.917 53.6251 167.885 168.292 83.9966 167.25 185.669 59.4625 
231.12 184.81 78.2821 205.382 164.76 35.3267 195.741 157.392 58.158 
207.957 158.303 64.6782 229.71 141.536 92.7414 220.821 150.256 96.3702 
188.046 172.247 87.6735 186.727 188.483 71.0465 177.835 179.767 52.5324 
164.258 162.572 76.0509 231.175 176.255 36.0845 164.345 178.41 75.4524 
236.217 187.126 72.0537 205.98 172.328 97.3546 154.101 164.065 89.8682 
178.098 163.378 59.5843 221.266 173.778 32.5025 207.721 187.285 42.86 
215.929 162.001 93.2376 217.916 170.952 89.777 217.836 188.22 51.5135 
157.979 170.333 83.676 196.536 190.548 73.2205 199.709 178.704 93.6286 
215.339 187.735 85.5341 189.165 166.833 40.9255 205 157.147 60.5335 
186.634 161.401 78.1057 210.323 187.605 43.6623 229.091 177.503 34.9524 
214.129 165.909 88.7354 238.531 139.425 88.9123 207.494 170.435 98.4677 
235.892 174.001 98.7436 201.77 185.807 89.4237 215.054 168.148 92.5401 
231.014 181.696 74.0806 161.782 161.341 82.2644 195.698 180.26 34.5036 
203.166 185.038 90.3006 214.594 154.223 51.1256 224.822 155.825 55.1293 
166.767 188.661 56.691 182.334 186.692 73.5539 238.325 178.867 56.285 
227.534 146.277 90.5938 218.472 155.642 104.284 239.406 170.373 66.904 
216.445 168.047 87.0649 198.321 156.945 48.9333 226.721 159.141 46.0046 
203.583 191.982 73.0012 198.79 159.73 42.727 169.28 191.125 66.6021 
220.913 161.151 99.042 191.891 189.465 72.4887 235.22 150.369 95.9236 
172.612 166.043 67.7043 231.309 181.966 42.1161 191.129 163.128 42.9013 
182.999 160.858 68.6044 199.204 190.76 75.2691 213.814 163.29 34.6467 
236.287 172.339 101.698 196.451 160.732 42.935 165.392 193.618 63.8159 
230.397 156.812 88.0257 222.297 166.471 32.5303 199.224 172.493 32.9388 
181.906 161.767 56.176 230.695 163.978 42.5322 177.752 164.393 70.399 
213.842 179.403 95.3653 162.358 193.315 59.9536 237.716 187.088 76.7506 
164.772 195.697 61.092 221.58 154.011 84.5244 217.525 162.54 93.8302 
218.491 152.163 100.078 225.047 183.018 80.6298 159.395 164.393 75.3131 
225.268 186.877 52.3622 162.077 164.33 89.2363 238.828 151.42 83.7524 
236.029 164.97 76.9612 227.401 176.205 96.5967 233.404 156.355 90.2716 
184.422 162.579 52.0674 216.701 188.429 83.2788 198.039 158.076 71.2678 
201.142 156.876 53.6576 173.441 166.564 65.3814 233.55 152.886 97.2116 
167.321 165.565 83.7782 167.103 186.508 58.1069 230.135 156.731 58.1291 
174.171 165.47 76.465 237.187 170.255 95.6269 230.007 186.186 61.5739 
178.9 167.256 52.3016 221.79 160.752 36.5961 198.445 190.511 56.5268 
236.819 193.53 80.1949 198.941 160.198 41.8776 181.823 162.608 71.819 
223.273 155.586 55.8364 213.921 160.693 91.3125 193.122 157.501 58.7008 
[...]
POINT_DATA 20000
FIELD FieldData 1
scalars 1 20000 float
142 97 114 105 109 106 107 114 112 
118 108 118 148 112 110 133 100 110 
122 100 92 120 86 72 105 88 113 
102 116 104 117 107 102 113 77 100 
116 108 101 119 94 106 122 115 107 
105 108 101 93 103 112 108 108 98 
94 111 117 110 102 116 99 103 93 
126 105 117 115 127 104 140 97 104 
114 96 85 110 115 114 121 106 104 
106 108 106 111 100 136 116 104 140 
114 110 109 118 99 126 114 98 102 
99 119 125 108 105 100 95 102 128 
103 103 103 97 132 109 110 98 116 
97 121 127 86 104 107 116 106 104 
103 109 117 103 121 105 107 115 113 
117 111 103 82 77 123 127 136 105 
116 87 83 123 102 107 102 113 120 
112 111 142 112 113 135 105 117 138 
124 102 97 114 123 139 102 102 105 
107 116 108 96 111 144 110 100 104 
107 104 75 122 137 117 140 96 92 
95 102 101 97 103 119 102 102 120 
111 119 106 108 108 110 110 100 115 
129 121 99 81 121 96 110 108 117 
98 113 132 139 106 93 110 97 97 
113 116 107 116 82 121 115 111 100 
110 107 89 131 105 106 109 115 108 
99 114 112 133 132 132 113 125 104 
107 91 89 113 117 102 118 115 119 
101 118 114 96 98 113 105 105 104 
103 132 121 100 100 99 109 105 113 
94 90 106 117 118 137 116 136 107 
122 99 87 109 109 100 111 147 117 
103 95 119 102 103 103 125 112 112 
105 94 110 100 108 96 98 97 122 
113 100 117 117 96 113 110 103 107 
108 134 98 134 102 113 122 115 88 
99 97 103 112 118 102 107 107 107 
115 117 113 89 98 139 95 80 125 
111 116 105 150 124 109 103 117 102 
127 116 120 112 129 103 108 111 123 
110 89 113 113 101 133 108 124 114 
101 108 117 94 116 101 123 131 92 
112 113 95 128 104 104 114 134 109 
114 101 110 129 106 122 112 100 117 
113 119 149 111 100 120 125 93 116 
95 140 111 131 98 111 117 113 110 
105 119 111 127 121 104 117 114 129 
119 99 125 106 101 122 99 96 141 
105 111 122 109 117 80 103 108 116 
133 105 110 106 94 123 112 101 119 
113 114 110 114 100 119 146 115 117 
85 102 104 114 119 102 127 101 106 
122 105 99 102 103 112 104 116 113 
94 95 116 99 101 132 117 98 94 
100 124 105 103 113 117 111 102 115 
108 103 109 97 116 110 93 111 79 
111 85 109 118 117 112 141 118 118 
114 101 125 131 93 75 153 116 98 
102 118 98 121 107 121 113 141 110 
98 108 121 115 145 99 103 111 106 
149 105 124 107 95 95 132 127 111 
140 103 102 109 111 94 118 121 114 
87 109 99 158 89 108 127 107 118 
98 112 102 119 100 98 98 110 96 
125 85 99 118 98 111 118 117 84 
113 103 86 105 98 115 126 100 102 
104 94 141 124 117 121 104 104 134 
124 107 107 94 101 104 80 117 100 
108 134 115 125 105 102 118 112 99 
127 101 105 120 101 122 123 142 136 
116 110 106 92 99 115 109 100 78 
88 112 105 106 88 115 115 105 105 
118 118 106 102 99 112 102 109 110 
122 129 113 108 111 111 117 107 92 
108 116 115 112 104 100 97 126 137 
107 109 88 106 99 117 122 127 116 
101 104 123 124 109 118 110 105 136 
154 106 99 99 117 110 137 119 118 
107 112 110 103 132 74 111 98 101 
130 105 123 105 102 83 118 104 113 
100 98 107 105 113 100 103 96 98 
120 123 118 112 120 104 98 111 114 
107 102 99 93 107 137 123 116 151 
98 104 129 124 101 89 107 141 97 
105 123 111 104 127 95 92 98 94 
117 107 109 109 108 106 131 70 114 
110 110 123 98 107 101 122 109 123 
117 136 110 119 143 117 109 92 98 
115 102 102 113 101 114 129 97 101 
98 105 114 109 104 102 108 110 120 
113 128 96 113 129 98 94 86 120 
118 112 99 115 102 96 126 100 105 
125 95 78 114 103 124 118 107 119 
96 98 110 136 108 133 117 105 113 
108 110 90 108 112 103 116 90 108 
122 122 99 114 106 123 114 90 120 
85 122 92 126 113 128 126 108 103 
130 109 101 130 101 111 114 96 145 
109 97 90 117 112 123 132 99 111 
109 107 84 111 125 94 118 102 126 
104 94 132 112 107 127 97 104 82 
131 116 119 124 137 115 115 102 114 
117 104 107 98 95 127 120 124 101 
101 103 115 107 118 103 104 115 116 
100 95 108 105 129 102 106 104 116 
165 100 104 103 91 114 112 93 128 
140 104 107 139 118 100 110 123 107 
118 129 128 106 128 107 92 96 120 
158 112 115 101 108 96 113 106 115 
122 102 111 124 115 128 113 105 109 
148 112 91 134 120 113 104 121 103 
120 101 112 105 96 126 112 127 101 
111 100 110 113 93 108 103 123 91 
114 108 102 111 110 97 116 106 113 
97 105 121 111 115 102 112 129 107 
112 117 114 95 111 104 120 99 124 
101 114 118 106 124 116 106 114 103 
92 121 118 96 109 98 106 93 103 
125 98 88 98 111 106 129 119 120 
90 119 121 125 132 127 114 98 110 
146 103 102 116 110 114 111 118 114 
99 114 106 112 125 120 108 119 113 
131 132 96 116 105 112 114 107 114 
96 106 122 109 101 110 106 115 103 
110 109 113 119 91 107 120 104 113 
118 109 126 107 104 115 112 98 109 
111 112 110 108 103 86 118 95 112 
113 97 98 113 142 95 114 107 95 
107 110 113 131 99 103 113 107 101 
114 130 131 89 107 105 92 145 72 
102 92 108 95 108 111 107 110 102 
119 97 118 113 117 110 94 113 111 
131 90 116 111 96 132 112 127 110 
147 127 105 122 111 106 125 86 85 
103 105 94 101 112 158 115 109 138 
120 133 104 112 101 112 114 104 114 
112 116 110 115 110 84 139 113 99 
115 106 117 123 119 81 121 99 116 
136 124 106 77 118 116 108 129 114 
136 120 115 104 123 110 112 107 113 
146 110 97 98 94 108 136 108 141 
112 127 119 107 113 104 104 118 103 
112 100 102 110 118 121 117 109 104 
127 96 101 97 119 95 118 114 97 
104 99 102 109 121 120 108 106 115 
88 128 147 103 96 123 114 103 112 
107 101 114 116 89 81 110 90 114 
117 127 99 110 101 104 124 92 113 
119 88 110 106 114 90 114 116 90 
118 112 99 105 107 113 106 100 149 
102 103 103 88 116 107 107 120 132 
122 123 101 117 134 111 97 110 108 
96 110 102 119 105 99 115 109 118 
127 102 102 143 104 110 105 108 102 
98 97 120 124 103 119 99 128 103 
123 110 102 97 120 129 105 110 101 
116 117 89 113 80 128 122 104 109 
113 119 112 91 111 113 140 93 139 
99 118 128 103 108 114 124 111 105 
119 106 110 83 106 114 123 105 128 
102 100 98 132 105 106 110 124 117 
105 92 107 107 109 125 117 120 112 
126 120 97 125 104 105 131 126 118 
103 103 107 108 117 112 123 96 97 
99 124 86 119 135 82 108 128 106 
113 96 118 102 111 105 103 122 107 
107 95 132 131 111 110 115 94 97 
109 114 127 96 116 115 118 104 112 
90 117 117 111 121 118 113 107 91 
97 102 104 157 112 97 108 131 121 
110 129 98 87 120 108 98 115 93 
105 103 89 92 90 100 124 114 106 
132 100 106 100 105 111 99 116 117 
96 121 115 111 102 102 121 102 116 
111 120 115 102 129 90 123 104 117 
127 92 98 146 101 119 106 109 86 
113 90 102 117 83 104 116 90 100 
101 126 111 117 105 111 108 100 112 
113 111 115 101 108 87 132 109 87 
115 116 97 105 109 98 121 102 111 
119 99 94 140 108 106 105 131 103 
102 109 130 105 125 111 100 115 118 
91 92 106 140 113 109 96 139 115 
112 133 102 99 114 114 96 100 155 
92 116 100 103 124 105 113 108 101 
121 112 119 117 126 110 121 108 99 
111 105 102 106 102 117 107 100 120 
134 113 103 107 96 112 117 100 118 
104 111 131 96 105 111 113 120 117 
111 108 89 98 117 81 102 102 129 
133 103 133 127 151 114 106 102 120 
116 119 122 116 115 109 131 115 99 
103 108 119 115 101 104 131 83 96 
115 90 107 104 123 131 112 105 115 
124 94 104 112 98 114 102 106 105 
85 80 94 114 150 102 102 89 114 
112 116 116 140 92 119 101 100 83 
120 116 100 136 109 87 101 96 104 
120 97 106 109 111 80 108 121 135 
107 132 113 107 116 145 118 113 101 
127 111 99 114 115 98 118 88 95 
106 113 107 115 105 116 103 117 107 
99 99 108 103 98 120 123 105 106 
103 109 105 123 122 131 111 106 116 
95 99 116 105 110 110 120 101 123 
117 105 103 122 133 129 110 112 104 
122 106 106 112 91 109 101 90 98 
109 125 84 115 119 110 103 120 136 
99 115 94 125 79 105 117 97 112 
130 154 116 114 107 100 98 112 120 
111 116 118 129 108 108 102 103 79 
117 102 76 109 101 104 123 128 108 
124 92 129 109 93 95 118 119 105 
95 107 128 100 116 109 102 129 118 
114 136 127 124 107 124 121 122 112 
131 104 103 98 90 118 109 120 99 
106 92 125 108 150 115 107 91 124 
126 131 126 119 116 80 103 100 107 
102 100 136 147 127 109 100 112 105 
98 120 146 119 124 112 118 107 112 
110 120 99 105 104 110 102 113 109 
103 114 122 110 105 117 119 129 101 
113 131 98 117 116 111 105 88 114 
117 109 123 104 101 84 141 122 100 
94 109 111 110 111 127 102 106 128 
95 115 117 103 105 95 106 146 103 
108 113 115 111 136 90 107 117 111 
104 90 110 137 105 125 139 109 113 
124 98 99 114 138 81 93 109 92 
109 104 111 109 85 76 101 108 104 
110 111 102 104 123 111 106 91 107 
110 116 87 115 111 112 109 115 106 
109 103 89 96 118 133 90 106 125 
116 99 92 104 123 110 125 114 118 
101 102 99 117 133 128 138 108 102 
108 112 99 109 101 121 96 109 110 
102 113 102 104 108 118 99 134 122 
110 99 109 118 120 115 109 110 108 
118 113 106 114 116 111 128 115 103 
116 109 123 103 95 115 106 104 130 
131 103 108 99 106 108 119 117 104 
103 100 100 106 94 91 134 106 109 
120 104 143 106 117 102 120 99 112 
121 107 93 104 127 109 105 135 114 
108 111 123 100 101 131 129 102 114 
126 98 103 121 112 128 98 114 110 
100 114 102 116 103 122 103 99 99 
107 110 122 107 106 105 108 96 115 
110 101 119 99 91 101 112 109 101 
100 108 102 114 121 117 116 102 119 
153 109 100 116 101 109 101 116 95 
105 125 103 82 117 102 111 109 110 
114 124 107 101 134 105 146 123 145 
92 123 127 83 140 113 111 102 109 
111 143 107 119 105 88 113 121 80 
118 111 90 128 131 96 102 95 122 
106 114 121 123 94 101 120 108 110 
108 147 107 126 103 113 107 138 104 
131 126 112 139 125 102 114 113 108 
88 75 103 74 111 109 114 111 103 
111 92 109 106 110 117 104 100 116 
110 113 92 108 111 95 96 94 121 
92 115 89 112 101 79 118 132 116 
98 120 106 118 108 113 144 110 116 
94 98 89 114 111 119 111 120 98 
135 102 96 117 106 111 89 127 94 
104 99 110 108 128 96 87 118 94 
106 107 106 82 131 91 105 106 114 
116 113 148 112 135 117 78 96 109 
100 138 98 110 107 123 96 103 120 
114 129 101 108 99 108 99 83 102 
102 118 97 117 125 113 120 137 84 
123 99 108 119 104 101 83 119 101 
86 106 104 108 98 96 117 103 87 
113 103 110 113 99 105 110 93 96 
111 97 115 112 112 100 117 110 100 
103 87 98 108 120 124 133 70 117 
106 102 151 99 90 102 125 91 122 
108 91 119 100 117 121 101 109 111 
115 105 111 109 117 94 107 123 116 
102 116 114 86 121 102 119 120 103 
115 141 97 105 80 115 103 109 94 
90 108 110 90 111 103 107 134 116 
106 106 90 116 112 110 120 97 122 
104 112 112 139 131 117 141 104 118 
120 121 91 107 115 117 106 121 97 
138 120 78 83 119 116 116 101 107 
81 96 113 110 133 108 131 111 105 
108 82 109 104 121 98 115 115 100 
106 110 113 114 118 122 115 126 115 
123 93 111 118 106 102 118 100 120 
94 103 115 124 106 111 106 112 116 
105 103 109 113 100 89 116 98 104 
85 117 100 130 89 140 112 111 121 
114 115 120 92 121 106 114 114 112 
117 138 100 105 98 121 114 102 85 
95 115 100 106 102 98 115 119 135 
114 100 112 117 106 99 111 114 94 
111 117 103 127 114 124 100 101 120 
103 128 114 147 103 118 124 103 115 
118 109 107 91 119 123 82 101 123 
129 107 89 134 107 105 97 91 122 
102 107 116 113 119 95 100 104 121 
91 99 97 86 101 94 99 129 111 
118 94 102 117 104 78 125 100 129 
72 111 116 97 76 104 112 105 122 
95 120 108 126 121 99 108 103 124 
132 114 116 93 111 120 114 110 89 
101 106 127 113 116 94 126 105 107 
111 104 126 120 100 86 124 147 117 
113 99 106 97 109 123 108 102 120 
116 92 108 111 118 131 100 107 128 
146 97 100 96 134 148 110 88 120 
113 99 120 117 125 109 113 101 67 
96 110 124 84 130 110 105 112 82 
80 121 86 107 126 101 126 74 124 
101 107 128 111 114 102 103 100 161 
108 110 109 129 112 98 133 98 118 
117 111 106 124 121 110 109 88 107 
122 128 107 98 139 119 125 146 108 
142 137 89 103 110 98 115 106 92 
117 114 112 93 103 101 104 126 116 
110 113 104 129 110 113 100 116 110 
116 81 97 100 146 96 104 107 103 
84 112 108 121 90 84 100 93 112 
132 114 95 97 97 107 116 108 121 
99 121 146 95 118 85 96 119 132 
124 129 128 77 110 110 101 129 117 
127 145 121 109 88 122 98 105 99 
146 144 113 108 102 89 111 129 123 
104 152 113 110 126 110 98 127 106 
109 138 110 120 103 121 97 107 134 
113 99 97 110 126 93 106 110 106 
116 104 100 83 96 104 103 120 117 
111 104 123 110 114 108 103 88 129 
125 99 126 100 92 128 103 101 98 
102 101 113 94 109 99 114 121 124 
114 114 123 74 101 101 151 97 110 
99 97 104 119 155 114 94 105 113 
106 119 118 101 92 109 98 103 99 
112 92 103 105 131 102 101 81 103 
115 108 90 105 108 103 114 120 108 
115 105 100 125 119 107 106 100 114 
118 119 115 116 106 109 111 93 119 
108 109 131 119 118 123 98 108 131 
124 101 114 123 127 103 116 109 116 
103 110 100 109 100 88 137 131 106 
145 108 96 125 136 99 108 129 123 
94 112 127 91 111 144 101 100 113 
121 113 102 130 88 128 91 123 104 
110 80 110 119 115 109 117 132 82 
125 107 96 111 114 111 112 97 118 
129 95 102 126 101 115 116 113 120 
105 110 112 117 114 108 117 107 92 
104 86 102 117 97 100 99 89 119 
102 103 125 101 111 106 98 118 106 
102 89 103 100 115 113 89 119 106 
104 118 112 98 118 98 106 131 96 
117 109 107 114 109 103 106 116 106 
125 129 115 119 117 102 98 101 108 
122 116 140 102 110 99 109 116 107 
141 119 115 111 106 92 109 120 100 
114 104 98 109 112 88 117 97 99 
121 119 108 105 112 94 112 117 149 
131 102 126 115 98 108 105 100 107 
109 111 144 118 103 108 91 99 102 
118 108 115 118 114 117 101 116 99 
103 106 116 97 96 110 126 112 121 
117 112 103 111 120 117 109 120 125 
82 98 111 106 140 108 118 102 138 
106 130 98 140 132 118 115 103 108 
116 115 98 89 110 106 108 100 107 
100 135 102 108 127 111 116 129 115 
120 109 111 89 107 127 153 109 100 
106 104 121 107 96 130 128 98 108 
107 96 99 104 102 117 115 107 106 
148 97 104 128 106 91 103 111 101 
129 118 101 114 99 113 115 108 99 
86 97 87 123 101 101 107 120 101 
92 95 103 97 118 117 109 123 108 
102 106 109 82 109 104 96 100 98 
104 89 126 112 118 96 120 103 110 
91 123 114 101 122 114 102 109 105 
99 124 119 110 100 86 138 103 108 
111 91 104 123 141 107 119 114 91 
100 126 106 103 110 124 126 118 114 
97 107 121 106 98 108 115 106 121 
104 99 101 99 117 90 98 100 101 
93 117 104 88 114 137 111 113 114 
101 109 113 129 115 112 117 102 118 
129 117 92 130 112 98 114 109 135 
87 121 94 123 82 84 108 96 118 
100 98 100 105 102 105 117 136 98 
115 118 100 103 103 100 109 120 94 
115 91 99 96 122 105 102 105 116 
100 96 107 122 116 108 115 109 105 
108 102 111 91 95 107 104 107 100 
110 97 114 139 95 133 110 117 113 
82 96 117 111 108 93 125 152 100 
112 103 104 99 136 125 118 119 87 
115 119 98 116 113 109 140 104 104 
115 109 110 116 99 93 100 96 99 
117 94 111 107 105 109 94 98 116 
109 105 122 120 102 125 113 96 95 
106 105 108 110 100 114 105 133 97 
125 109 122 99 129 94 83 126 125 
90 102 111 95 107 126 101 118 86 
86 111 97 93 110 119 94 107 99 
110 114 95 120 111 116 80 135 124 
108 97 111 122 113 105 91 114 135 
118 151 129 124 94 115 101 85 109 
81 97 77 118 99 126 118 88 105 
123 110 108 113 97 106 95 120 121 
109 117 123 109 105 119 100 103 123 
106 145 111 117 134 107 118 111 112 
116 123 127 117 137 116 105 145 113 
116 113 112 111 84 104 114 107 127 
113 103 108 102 106 114 113 119 114 
117 116 109 113 111 112 104 97 117 
98 117 100 119 86 132 107 94 110 
106 125 93 105 119 113 112 114 114 
118 93 90 117 98 119 95 103 140 
100 105 130 97 130 106 120 112 91 
110 122 98 108 117 109 119 75 100 
120 115 91 124 112 116 99 123 119 
98 103 119 106 110 140 109 125 103 
98 118 97 123 101 94 103 74 116 
109 112 112 101 94 112 103 104 105 
144 84 105 134 131 97 125 107 99 
92 122 105 106 117 111 98 106 112 
121 110 113 117 117 91 103 115 124 
99 112 92 111 122 105 106 111 117 
114 112 81 105 119 117 128 102 99 
99 110 107 107 103 114 101 110 109 
125 124 103 118 98 119 86 106 90 
102 101 117 106 95 102 98 95 109 
125 108 94 104 116 110 105 107 107 
100 109 110 118 114 89 107 104 118 
105 87 130 101 112 119 122 78 97 
93 131 106 105 117 124 102 105 125 
106 127 100 95 115 112 130 87 116 
120 111 98 112 114 109 122 90 108 
141 134 127 105 110 104 112 111 120 
126 97 109 93 114 94 105 106 148 
115 109 96 129 141 106 115 104 102 
118 110 136 96 102 106 111 99 129 
106 130 132 143 127 116 136 114 133 
126 86 96 99 123 98 91 103 105 
105 109 107 131 102 103 91 117 120 
108 101 118 114 115 109 94 107 112 
88 94 123 96 125 113 109 110 117 
86 112 125 100 88 111 94 100 109 
93 117 136 107 108 112 108 111 102 
106 131 117 114 107 117 106 125 122 
101 113 110 103 102 97 103 102 107 
110 120 108 138 107 87 117 103 92 
115 97 103 97 118 104 115 102 100 
121 109 109 101 152 105 104 120 114 
105 108 100 111 96 105 105 108 108 
111 103 117 116 106 112 89 118 95 
107 148 101 105 104 119 108 112 108 
99 107 103 104 97 116 117 90 116 
87 136 125 102 120 102 104 101 109 
98 110 73 100 141 118 99 108 125 
136 101 123 114 106 96 106 111 108 
123 113 97 109 126 126 102 108 125 
120 114 117 92 149 99 111 115 86 
129 113 117 106 97 93 106 102 92 
128 138 114 109 112 91 97 109 104 
105 107 105 119 113 118 105 119 112 
121 101 121 109 104 117 102 109 108 
128 100 93 104 105 96 139 102 95 
112 99 124 105 103 113 105 98 124 
132 101 97 101 117 111 97 105 109 
111 127 113 108 101 113 95 114 105 
132 120 85 112 108 92 125 98 97 
125 119 116 99 105 97 113 97 124 
106 106 94 130 87 98 115 109 103 
109 136 101 132 111 110 101 121 102 
103 105 111 120 118 86 101 100 119 
103 110 113 141 118 102 93 114 98 
124 90 142 91 113 122 103 87 92 
102 116 109 95 109 95 121 105 96 
107 80 108 109 100 127 110 115 155 
105 94 94 111 121 120 107 148 92 
116 78 104 109 106 100 93 101 88 
112 104 116 121 105 120 119 127 115 
127 115 101 115 94 99 88 101 131 
110 122 113 117 121 108 97 130 130 
75 106 116 118 96 100 101 115 90 
116 105 110 115 101 95 104 109 104 
109 108 105 137 88 110 112 99 110 
121 111 116 98 111 124 100 123 99 
113 108 95 102 113 109 123 122 105 
124 116 110 118 95 103 108 126 99 
113 102 122 108 104 124 133 116 116 
132 102 108 124 114 102 98 118 121 
121 108 100 129 107 105 94 100 103 
130 108 126 104 123 94 124 126 113 
112 104 119 107 104 125 89 118 113 
126 82 110 105 141 122 110 109 115 
114 127 101 108 123 116 113 96 93 
114 96 107 126 114 119 121 119 95 
138 124 94 86 93 94 104 112 107 
99 102 120 106 110 109 87 107 108 
110 118 95 100 112 102 116 124 126 
118 102 121 133 110 119 115 105 107 
127 85 118 119 114 107 110 113 111 
96 102 112 103 123 107 110 102 100 
107 126 114 116 109 106 74 120 132 
99 112 128 90 104 105 114 113 116 
116 99 106 105 106 111 113 122 104 
111 107 120 106 101 143 124 125 119 
109 100 119 111 99 109 98 144 88 
97 122 101 108 99 103 102 101 112 
102 112 114 99 108 127 100 113 101 
74 96 95 116 113 111 121 107 131 
138 97 116 143 97 140 114 105 99 
119 99 105 116 115 112 106 108 92 
98 99 109 121 95 118 103 104 100 
107 110 101 116 93 115 104 95 114 
96 94 100 99 107 108 102 103 119 
114 124 144 103 107 114 125 108 112 
109 111 96 104 108 111 111 111 133 
125 98 127 123 111 103 117 116 115 
112 105 136 118 107 116 111 108 116 
112 106 114 105 107 102 120 124 114 
99 90 125 91 99 109 115 112 137 
109 140 109 116 107 108 110 115 125 
119 110 106 124 129 107 112 135 116 
127 94 101 109 98 91 110 107 84 
110 101 112 97 105 107 89 126 115 
108 105 116 105 107 94 111 122 116 
115 119 96 99 98 100 107 103 109 
107 92 115 102 102 104 107 110 112 
126 79 101 118 101 84 91 105 78 
127 118 125 108 89 110 122 102 100 
98 119 100 115 124 114 114 115 102 
109 113 131 125 101 102 108 134 99 
101 116 127 121 104 110 84 91 116 
98 119 132 104 121 106 115 117 112 
107 114 112 84 110 119 108 117 99 
139 138 115 109 104 92 121 104 106 
109 105 80 113 128 104 133 109 113 
120 117 112 122 105 105 119 97 131 
103 98 101 120 106 94 103 99 114 
102 114 99 110 110 128 108 104 107 
97 99 116 125 111 100 109 102 105 
95 122 138 118 123 101 97 121 107 
108 114 130 105 96 106 102 113 91 
112 109 93 109 126 104 105 103 120 
95 97 145 100 112 119 113 97 110 
117 95 95 120 101 99 120 113 115 
110 102 100 106 109 129 127 124 126 
124 120 142 103 103 121 99 104 111 
131 98 118 99 109 99 117 116 106 
97 131 96 106 118 131 118 93 111 
99 107 106 117 101 124 111 92 115 
92 101 136 109 112 103 95 108 117 
89 122 128 105 77 92 101 118 92 
105 79 111 133 102 115 108 104 103 
112 80 122 107 92 103 102 123 91 
128 104 106 112 96 119 116 107 136 
140 105 127 107 86 112 94 121 101 