# vtk DataFile Version 4.2
vtk output
ASCII
DATASET POLYDATA
POINTS 9 float
173.067 190.466 72.91 175.035 203.59 51.3085 234.551 212.006 67.7115 
235.944 201.089 84.4871 239.948 184.858 78.7595 216.5 174.032 43.5068 
215.702 188.702 31.3649 239.673 197.114 45.8996 242.08 177.033 62.9106 

VERTICES 9 18
1 0 
1 1 
1 2 
1 3 
1 4 
1 5 
1 6 
1 7 
1 8 

POINT_DATA 9
FIELD FieldData 1
seed_label 1 9 double
0 1 2 3 4 5 6 7 8 

