# vtk DataFile Version 5.1
vtk output
ASCII
DATASET POLYDATA
POINTS 9 float
174.439 190.676 74.4098 175.623 203.525 51.8168 232.274 210.26 68.4365 
234.428 200.362 83.6291 237.799 182.276 77.8029 211.309 175.604 38.3753 
213.299 186.728 31.5547 238.734 198.108 46.5324 240.994 176.093 63.5392 

VERTICES 10 9
OFFSETS vtktypeint64
0 1 2 3 4 5 6 7 8 
9 
CONNECTIVITY vtktypeint64
0 1 2 3 4 5 6 7 8 

POINT_DATA 9
FIELD FieldData 1
seed_label 1 9 double
0 1 2 3 4 5 6 7 8 

