# vtk DataFile Version 4.2
vtk output
ASCII
DATASET POLYDATA
POINTS 14933 float
222.052 177.185 28.4972 222.916 176.881 28.5119 222.165 176.411 29.0271 
222.63 177.571 27.9008 223.536 177.155 28.1842 223.493 177.866 27.635 
224.297 177.646 27.7293 223.639 176.347 28.9646 224.265 176.922 28.4496 
225.436 177.441 27.906 224.916 177.066 28.2828 225.711 176.705 28.5907 
226.3 177.162 28.1408 226.584 176.483 28.8131 226.566 177.878 27.6175 
225.905 178.044 27.5844 227.503 176.485 28.8337 226.788 175.9 29.5265 
227.171 176.956 28.3818 227.255 178.362 27.5219 227.189 177.511 27.8435 
227.994 178.047 27.5748 227.981 177.2 28.1141 228.296 176.547 28.7692 
228.667 177.563 27.8059 228.752 177.021 28.3497 229.601 177.469 28.2138 
229.383 176.798 28.7737 221.325 178.494 27.6531 221.406 177.693 28.2183 
220.672 178.045 28.1024 221.985 178.086 27.7387 222.232 178.917 27.5153 
222.842 178.42 27.5587 223.748 178.775 27.5075 224.947 178.117 27.5694 
229.931 178.197 27.8962 230.361 177.57 28.7708 229.092 178.073 27.6242 
219.679 177.532 29.1074 219.31 178.129 29.0065 220.045 177.994 28.5188 
219.457 178.816 28.4853 220.037 178.767 27.975 220.649 178.89 27.6191 
224.487 178.803 27.5052 225.452 178.767 27.5088 226.352 178.822 27.5058 
226.958 179.206 27.5028 228.54 178.828 27.508 227.75 179.143 27.5029 
229.401 178.897 27.5326 230.281 178.936 27.8588 230.533 178.403 28.4022 
220.188 179.575 27.6321 220.959 179.748 27.5037 219.402 179.655 28.1182 
221.528 179.32 27.5105 222.403 179.704 27.5025 223.042 179.273 27.5041 
223.595 179.785 27.5025 224.314 179.841 27.5025 224.975 179.48 27.5026 
229.214 179.827 27.5039 229.998 179.503 27.5709 230.93 179.149 28.3937 
230.684 179.755 27.8612 231.48 178.656 29.2102 230.971 178.241 28.9034 
231.495 179.396 28.8559 218.929 179.228 28.7294 218.694 179.936 28.639 
218.892 180.608 28.3609 219.322 180.938 27.9013 219.701 180.218 27.7293 
220.552 180.436 27.5096 221.319 180.748 27.5025 221.848 180.24 27.5025 
223.575 180.689 27.5025 222.827 180.425 27.5025 224.534 180.671 27.5025 
225.435 180.157 27.5025 225.882 179.532 27.5025 226.536 180 27.5025 
227.414 180.047 27.5025 227.957 180.785 27.5025 228.337 179.806 27.5025 
231.307 180.045 28.3612 220.043 181.006 27.554 222.342 181.083 27.5025 
227.146 181.027 27.5025 226.314 180.713 27.5025 225.438 180.912 27.5025 
228.768 180.551 27.5025 229.558 180.942 27.5034 230.015 180.305 27.5253 
230.833 180.561 27.6915 231.187 181.367 27.696 231.565 180.901 28.1861 
218.301 180.664 28.8548 218.454 181.5 28.6672 218.995 181.59 28.2155 
219.151 182.365 28.0416 219.658 181.7 27.66 220.731 181.378 27.5046 
222.565 181.956 27.5025 221.655 181.648 27.5025 224.037 181.453 27.5025 
223.19 181.45 27.5025 228.795 181.482 27.5025 229.782 181.733 27.5027 
230.443 181.283 27.5152 231.967 180.381 28.7971 232.16 181.163 28.705 
218.461 182.43 28.6753 220.223 182.186 27.5334 220.958 182.19 27.504 
224.229 182.344 27.5025 224.875 181.524 27.5025 225.695 181.914 27.5025 
226.147 181.38 27.5025 226.713 181.78 27.5025 227.167 182.272 27.5025 
227.876 181.666 27.5025 229.362 182.32 27.5025 231.509 182.068 27.7288 
232.06 181.797 28.2747 219.856 182.839 27.6553 221.206 182.895 27.5043 
221.943 182.47 27.5025 222.706 182.9 27.5025 223.406 182.203 27.5025 
223.445 183.003 27.5025 225.18 182.347 27.5025 224.763 182.935 27.5025 
226.27 182.596 27.5025 225.616 183.104 27.5025 226.907 183.082 27.5025 
228.709 182.491 27.5025 227.969 182.434 27.5025 230.604 182.223 27.5192 
231.148 182.906 27.6531 232.678 181.7 29.0648 232.442 182.483 28.6079 
233.026 182.465 29.169 231.865 182.693 28.0863 218.552 183.278 28.8598 
219.11 183.144 28.291 220.626 183.352 27.5502 221.9 183.39 27.5025 
222.473 183.931 27.5025 223.257 183.89 27.5025 224.067 183.378 27.5025 
227.807 183.135 27.5025 228.663 183.387 27.5039 229.508 183.228 27.5045 
230.008 182.674 27.505 230.398 183.382 27.5382 219.21 183.933 28.6461 
219.79 183.577 27.9228 221.362 184.093 27.5486 220.519 184.067 27.7475 
223.979 184.391 27.5099 224.81 183.74 27.5025 225.569 184.043 27.5035 
226.347 183.753 27.503 227.246 183.77 27.5086 228.104 184.018 27.5174 
229.354 183.986 27.525 230.037 184.369 27.6538 231.532 183.562 28.1368 
230.8 183.899 27.8047 232.16 183.364 28.622 219.928 184.252 28.3598 
224.839 184.663 27.5265 225.589 184.939 27.5477 226.303 184.71 27.5224 
227.09 184.489 27.5436 227.902 184.805 27.6725 228.792 184.558 27.599 
231.237 184.322 28.341 230.535 184.76 28.1633 231.783 184.464 28.8983 
232.319 183.923 29.044 220.724 184.676 28.0644 220.138 184.863 28.5999 
221.343 184.896 27.8082 222.075 184.731 27.55 223.009 184.742 27.5237 
222.467 185.459 27.7456 223.523 185.322 27.6548 224.276 185.387 27.7063 
225.115 185.561 27.7767 226.138 185.596 27.8289 226.986 185.308 27.7695 
229.586 185.052 27.9688 231.063 185.128 28.7529 220.804 185.407 28.5492 
221.639 185.537 28.0741 221.327 185.98 28.6652 223.027 185.945 28.1332 
227.824 185.369 28.1094 226.759 186.037 28.3859 227.497 185.963 28.5325 
228.792 185.202 28.0416 228.388 185.711 28.4886 228.225 186.298 28.8031 
229.223 185.775 28.6256 230.175 185.382 28.5486 222.168 186.129 28.4177 
223.883 186.028 28.2231 223.145 186.587 28.686 224.133 186.674 28.7015 
224.714 186.122 28.3217 225.64 186.047 28.2631 225.225 186.702 28.7164 
225.753 187.167 29.2178 226.139 186.513 28.6836 221.013 176.168 30.0249 
221.349 176.543 29.2395 221.746 175.986 29.7725 222.459 175.778 29.8142 
222.921 176.244 29.0692 223.553 175.368 30.5162 222.8 175.363 30.5735 
223.266 175.76 29.7655 224.114 175.728 29.8212 224.302 176.255 29.05 
225.021 176.345 28.9401 224.886 175.815 29.653 225.908 176.123 29.1871 
225.42 175.437 30.3786 225.786 175.744 29.7773 226.364 175.408 30.4391 
227.139 175.472 30.3089 227.688 175.971 29.422 228.657 176.147 29.1846 
229.375 176.169 29.4172 228.585 175.769 29.7689 230.092 176.87 29.1944 
230.08 176.309 29.8634 229.377 175.734 30.2061 220.4 177.235 28.9417 
220.555 176.628 29.5792 219.786 176.94 29.6366 221.15 177.139 28.7506 
230.772 177.033 29.7406 231.075 176.743 30.3814 230.567 176.17 30.5486 
219.816 176.457 30.2598 219.037 176.825 30.3139 219.097 177.395 29.6699 
231.077 177.683 29.4157 218.488 177.409 30.1751 218.676 178.062 29.6526 
231.473 177.448 30.2661 231.667 178.198 29.842 218.018 178.872 29.6708 
218.052 178.148 30.0117 218.731 178.64 29.1941 232.051 178.941 29.8929 
218.251 179.377 29.1159 232.058 179.634 29.2928 217.56 179.653 29.7052 
217.95 180.135 29.2549 216.888 179.521 30.0022 217.258 180.414 29.8207 
232.469 179.548 30.0878 232.471 180.323 29.4152 217.84 181.166 29.2471 
217.231 181.303 29.7529 232.73 181.015 29.4056 232.848 180.323 30.0607 
233.148 181.094 30.0554 217.856 181.996 29.083 217.25 182.151 29.6771 
216.871 182.675 29.93 217.268 183.324 29.8861 216.518 181.808 29.9727 
217.859 182.778 29.3205 233.199 181.889 29.6686 233.558 182.625 29.8514 
233.98 182.155 30.6832 233.572 181.713 30.3125 218.01 183.591 29.5589 
232.972 183.224 29.2129 233.585 183.569 30.0025 233.981 182.945 30.5011 
218.647 184.147 29.2149 218.162 184.495 29.7852 232.921 183.996 29.6736 
219.378 184.741 28.9558 232.46 184.676 29.6245 233.308 184.642 30.0432 
217.624 185.144 29.9934 218.176 185.547 29.9495 218.774 185.036 29.6578 
219.477 185.432 29.4145 231.794 185.14 29.244 232.461 185.396 29.8382 
220.1 185.577 29.0131 231.74 185.794 29.6638 230.893 185.785 29.2057 
219.95 186.285 29.6892 219.178 185.922 29.8745 220.651 186.22 29.1657 
220.564 186.882 29.7876 229.111 186.539 29.0872 229.935 186.016 28.9698 
230.102 186.459 29.4742 230.924 186.415 29.7478 231.775 186.391 29.934 
221.39 186.553 29.1618 221.022 187.422 29.9335 221.636 187.071 29.5546 
222.242 186.732 28.9188 224.685 187.255 28.9659 223.648 187.288 28.9579 
227.312 186.745 28.9533 228.299 186.917 29.1764 228.94 187.175 29.6243 
229.708 187.021 29.7706 230.549 187.126 29.9426 221.96 187.616 29.7949 
222.661 187.293 29.2667 223.362 187.778 29.4493 222.718 188.107 29.8397 
225.073 187.76 29.5311 225.977 187.753 29.7636 226.521 186.989 29.1708 
226.899 187.479 29.6244 227.719 187.315 29.5229 228.388 187.719 29.8587 
224.224 187.866 29.4748 223.632 188.403 29.8629 224.57 188.557 29.9555 
221.999 175.48 30.5857 222.623 175.031 31.3031 221.856 175.194 31.3597 
223.897 175.1 31.0532 223.187 174.855 31.5968 224.596 175.337 30.5772 
224.783 174.92 31.4122 225.536 175.086 31.0808 226.267 174.973 31.3113 
227.754 175.178 30.9013 227.098 174.987 31.2817 227.923 175.555 30.1464 
228.408 174.974 31.3902 227.809 174.67 31.9865 228.613 175.368 30.5611 
229.297 175.281 31.0619 230.033 175.717 30.8018 230.137 175.387 31.6175 
229.36 175.03 31.7945 220.722 175.616 31.2249 220.237 175.444 31.8106 
219.811 175.867 31.2941 220.401 176.049 30.5657 219.317 176.289 30.9062 
221.27 175.725 30.7004 221.117 175.254 31.8046 230.779 175.766 31.5498 
231.138 176.275 31.1115 218.579 176.543 31.0458 231.616 176.857 31.1179 
217.988 177.186 30.7621 217.208 176.899 31.4315 217.091 177.465 31.0359 
217.898 176.593 31.406 231.959 177.526 31.0954 216.744 177.998 30.6941 
217.543 177.857 30.3985 232.01 178.141 30.5489 216.761 178.583 30.2263 
217.37 178.731 29.9843 216.111 177.93 31.1291 216.102 178.612 30.6173 
232.379 178.173 31.2546 232.469 178.857 30.7969 214.933 179.376 30.9827 
215.511 179.27 30.5454 215.528 178.599 31.0706 216.146 179.312 30.1672 
232.856 179.656 30.7556 215.238 180.068 30.2986 214.424 179.989 31.0179 
216.201 180 30.0415 233.232 180.374 30.7743 215.049 181.094 30.1184 
214.614 180.719 30.5198 214.003 180.752 31.0423 215.757 180.606 30.0417 
216.582 180.795 29.9843 233.136 179.502 31.4677 233.644 181.097 30.9069 
233.661 180.453 31.5323 215.854 181.37 30.01 213.771 182.351 30.9539 
214.349 181.621 30.4521 213.876 181.565 30.9535 215.138 181.905 30.0592 
214.478 182.434 30.2855 215.927 182.351 30.0006 234.193 181.776 31.3475 
214.641 183.346 30.1683 213.931 183.158 30.7665 215.185 182.705 30.0273 
216.256 183.091 29.9964 215.552 183.306 30.0046 234.401 182.699 31.2769 
[...]
POINT_DATA 14933
FIELD FieldData 4
scalars 1 14933 double
44 45 51 47 50 50 50 51 53 
45 52 45 45 48 45 45 48 49 
46 55 47 55 50 47 52 50 49 
49 50 44 53 49 56 56 48 44 
45 42 59 53 52 48 58 61 58 
49 44 53 57 57 59 59 43 40 
58 45 61 57 52 53 56 48 44 
50 50 41 45 44 42 50 58 63 
70 65 54 47 47 52 70 62 54 
52 48 59 58 49 55 41 53 70 
54 53 48 49 47 51 46 40 38 
73 57 63 59 60 49 70 60 63 
70 45 48 56 41 47 59 51 46 
58 48 50 53 47 45 46 45 53 
49 52 44 54 51 56 43 55 54 
49 49 46 48 45 52 34 48 52 
49 42 59 63 51 44 46 46 46 
52 56 52 52 49 63 64 55 58 
43 42 50 52 56 54 51 55 44 
43 38 58 47 54 54 56 65 55 
46 45 58 54 60 59 56 51 46 
54 50 54 70 81 63 52 44 56 
57 57 67 53 61 57 54 53 56 
53 52 64 70 64 70 79 84 84 
82 80 56 56 59 55 49 62 55 
65 60 57 47 60 49 48 46 50 
49 48 49 49 50 47 49 50 47 
53 53 46 46 47 47 49 47 52 
42 49 52 46 45 62 54 56 50 
64 43 72 72 69 74 40 46 75 
72 49 47 50 74 65 65 58 71 
61 48 60 45 44 57 62 60 60 
61 58 58 57 60 49 59 61 65 
69 56 60 67 52 54 63 72 63 
63 54 52 55 55 44 67 74 75 
64 86 66 66 56 57 48 44 71 
70 57 64 83 84 83 73 55 56 
63 62 75 57 55 52 58 53 61 
58 55 55 56 53 53 55 56 52 
52 49 48 53 56 55 55 58 48 
58 56 46 46 48 46 49 54 57 
54 50 66 55 51 68 63 60 66 
55 54 64 69 65 69 42 70 66 
73 46 78 63 60 73 73 42 46 
53 71 80 64 70 77 62 71 42 
56 67 64 63 64 44 52 63 70 
55 54 56 45 61 57 60 63 53 
66 64 67 60 65 60 64 42 68 
62 50 80 78 64 59 62 58 64 
61 61 49 70 72 70 59 61 65 
58 65 70 66 55 71 69 61 63 
68 72 66 60 63 57 44 70 73 
75 63 58 79 66 68 64 86 82 
83 73 67 60 65 70 68 56 59 
53 52 66 70 62 72 62 52 73 
69 56 60 65 61 64 60 65 60 
63 59 61 62 67 74 75 73 75 
70 71 74 75 76 73 71 60 62 
77 77 71 67 72 71 64 62 80 
53 52 53 59 56 54 56 60 59 
49 50 51 54 55 48 58 53 50 
51 47 45 53 55 55 52 58 43 
44 46 54 60 55 50 49 57 54 
55 49 49 47 60 51 56 57 62 
62 56 55 55 53 61 58 53 48 
46 75 75 72 97 70 88 47 56 
92 89 91 42 46 54 76 88 91 
52 51 75 82 51 49 50 75 49 
49 69 77 75 66 57 59 67 49 
59 61 60 57 68 57 59 65 62 
64 62 76 75 63 62 63 60 65 
71 76 75 63 59 72 72 72 65 
58 58 60 60 58 53 71 77 65 
68 58 61 61 65 61 56 59 56 
60 55 54 62 59 76 82 82 78 
82 81 80 54 53 65 55 70 65 
70 66 65 58 58 59 67 72 78 
52 50 50 52 60 59 63 59 59 
52 48 52 48 54 46 43 50 43 
40 55 57 51 57 59 58 58 57 
51 42 48 49 49 50 51 61 51 
61 52 55 56 58 49 52 52 43 
45 38 50 36 54 42 49 54 54 
52 40 54 58 73 67 81 81 77 
65 50 57 53 49 51 49 86 86 
52 92 91 84 90 89 93 58 60 
56 84 90 77 90 91 85 84 52 
55 91 75 89 49 93 51 55 88 
91 67 74 55 51 90 93 46 88 
67 55 48 72 72 69 61 70 48 
65 58 61 73 73 59 47 52 52 
59 60 72 69 67 55 72 61 58 
55 53 58 56 58 63 73 74 67 
67 58 61 52 63 67 59 59 59 
69 73 74 80 48 52 68 68 69 
74 77 77 57 58 56 56 52 56 
58 60 59 69 67 79 63 56 68 
70 70 64 58 51 56 62 62 53 
55 50 62 67 71 66 61 60 61 
62 71 55 57 61 58 58 55 58 
58 55 69 51 51 52 50 50 51 
60 66 66 65 58 54 50 50 48 
48 46 40 44 49 47 39 46 52 
51 52 63 63 49 46 52 55 52 
55 48 53 51 50 42 56 41 37 
52 44 45 59 54 54 59 52 57 
62 57 63 53 73 65 73 52 58 
82 84 52 71 83 53 82 75 46 
59 49 75 61 71 74 77 56 78 
83 56 51 60 61 58 90 87 81 
80 47 56 87 77 68 76 46 88 
48 45 53 76 65 64 65 65 65 
54 54 65 65 77 75 61 59 64 
63 70 67 56 52 80 57 65 79 
57 55 59 58 71 72 57 60 59 
56 67 66 52 59 59 62 65 60 
55 53 68 52 68 60 70 67 66 
59 62 57 64 71 64 62 59 52 
52 64 67 68 68 62 57 57 57 
71 71 63 59 53 46 55 72 68 
71 68 63 56 55 60 56 57 53 
55 52 56 56 55 58 62 69 70 
58 73 41 41 44 41 49 48 51 
57 54 52 52 49 56 66 59 62 
58 53 53 56 50 42 45 46 46 
46 48 46 48 51 56 53 53 53 
51 60 49 53 59 51 50 48 49 
51 56 61 59 45 45 49 54 61 
61 59 59 43 42 45 57 58 46 
56 47 47 52 62 55 45 55 50 
63 57 60 59 64 70 77 65 59 
67 81 44 53 58 51 61 58 65 
70 70 53 62 64 60 55 66 61 
68 70 59 59 64 56 68 60 66 
78 80 85 74 58 60 54 51 51 
56 53 85 61 57 52 53 53 59 
69 79 78 49 51 52 63 72 73 
74 56 54 54 69 76 49 49 53 
57 63 69 57 55 54 57 55 58 
66 63 54 58 59 57 53 55 52 
54 59 53 56 56 56 63 53 56 
55 60 60 59 55 53 56 59 64 
73 73 75 64 58 60 61 56 61 
57 76 63 53 54 49 58 52 60 
53 51 47 56 50 55 57 74 53 
54 56 50 51 52 66 76 66 53 
50 57 57 56 55 56 68 74 70 
71 55 53 59 61 59 59 55 57 
58 58 61 60 60 63 63 69 62 
69 63 64 51 58 56 58 60 57 
61 59 57 62 52 58 63 52 58 
51 67 67 55 49 66 66 56 60 
56 58 56 63 63 53 50 58 55 
45 49 64 53 65 67 68 62 65 
59 54 58 52 73 65 72 66 65 
59 56 56 69 72 67 59 61 63 
65 65 67 73 74 62 68 57 65 
56 56 64 64 69 65 59 57 64 
64 68 63 55 50 51 50 56 62 
68 68 61 56 63 64 64 60 66 
53 53 60 47 63 66 69 53 53 
59 63 56 74 57 71 74 64 61 
60 52 52 52 51 47 46 56 67 
70 70 63 73 67 69 63 67 62 
64 60 68 59 59 63 55 51 52 
52 52 50 50 49 44 61 61 64 
63 63 63 65 70 73 68 66 66 
43 48 46 51 52 49 49 47 47 
47 48 54 49 54 52 52 56 62 
64 64 59 59 54 56 51 56 50 
43 50 50 55 47 54 50 55 51 
58 55 54 56 57 53 47 59 50 
59 53 54 53 53 44 46 53 48 
48 50 46 60 56 56 43 40 57 
63 67 65 66 44 72 73 44 73 
70 56 68 60 51 48 56 56 55 
64 65 65 61 54 54 53 53 52 
61 68 57 61 51 51 51 50 52 
63 64 59 56 55 54 54 55 53 
50 60 57 58 61 60 60 60 60 
59 56 72 58 73 56 55 46 45 
69 69 50 52 65 72 72 80 49 
72 70 65 48 53 49 67 66 45 
48 50 52 60 49 50 49 57 57 
60 53 51 49 57 51 53 61 57 
58 59 61 54 50 67 63 54 57 
53 53 58 59 62 53 51 49 48 
51 51 55 50 44 60 60 62 62 
62 57 49 49 44 50 56 56 52 
52 57 57 55 54 56 51 52 48 
49 45 48 51 50 45 47 51 58 
59 62 64 66 66 67 74 72 72 
72 71 75 72 63 65 64 66 63 
55 58 58 58 49 54 60 63 63 
62 58 62 64 72 73 55 62 53 
62 56 46 43 53 49 58 48 58 
47 56 49 56 57 54 54 58 55 
58 53 53 54 47 51 53 54 53 
51 50 49 54 58 62 60 58 56 
48 48 53 48 54 54 52 51 52 
60 61 53 54 57 66 55 65 56 
63 53 52 50 46 54 50 53 63 
49 47 58 61 64 50 56 58 66 
68 63 38 42 44 58 55 56 60 
74 42 43 49 45 56 59 64 72 
45 50 56 61 63 54 49 45 47 
58 46 44 53 61 70 62 55 52 
48 53 57 54 55 67 65 64 65 
58 60 56 56 60 49 52 60 58 
52 59 64 63 59 62 48 57 57 
63 62 63 52 68 67 54 51 59 
46 42 42 54 58 60 54 51 49 
65 61 60 42 45 47 50 60 57 
51 56 56 47 40 41 54 50 44 
60 46 51 39 45 78 65 60 45 
55 45 50 77 81 55 47 42 39 
43 70 47 55 47 42 57 66 40 
50 47 44 44 61 65 44 46 49 
43 48 46 42 47 57 55 53 48 
49 45 45 50 53 54 51 54 51 
52 47 54 54 59 51 52 49 55 
53 63 54 50 46 56 55 54 61 
55 49 49 51 55 55 53 50 65 
63 58 50 46 60 53 53 53 50 
50 53 49 64 53 52 52 49 56 
62 55 48 50 50 52 53 50 50 
51 74 73 75 70 56 72 55 57 
66 54 53 53 54 67 63 53 49 
47 49 55 59 58 59 55 58 56 
55 63 73 53 68 49 59 58 54 
51 53 56 53 55 55 52 55 55 
57 61 63 54 57 56 53 61 62 
62 55 50 46 53 52 59 68 62 
59 71 61 58 61 54 56 56 55 
53 54 55 71 62 69 61 58 75 
75 72 54 58 69 53 64 64 60 
62 54 54 50 54 61 63 67 64 
65 45 50 40 48 44 55 40 44 
49 40 58 47 52 47 58 54 51 
52 59 42 51 50 46 47 43 61 
60 50 52 53 53 56 55 59 57 
53 57 59 51 50 57 46 45 54 
59 49 52 49 62 59 48 49 60 
54 53 50 50 47 51 45 51 49 
51 53 49 59 51 50 56 47 57 
61 72 73 62 58 82 73 78 75 
82 82 78 76 73 73 60 68 68 
68 57 57 58 59 58 64 62 59 
59 60 57 57 54 53 45 54 54 
52 57 44 47 45 53 51 53 59 
52 45 46 39 62 56 62 72 61 
60 81 86 63 59 60 58 49 48 
48 44 67 60 52 48 50 48 48 
60 62 55 58 55 63 67 78 60 
66 52 64 54 56 58 58 60 58 
54 57 57 56 62 53 49 51 54 
54 55 53 53 73 70 69 56 54 
53 65 68 72 60 66 46 47 61 
57 61 57 53 61 58 57 55 60 
65 43 46 51 57 64 63 64 62 
57 62 67 65 75 75 73 66 60 
61 61 53 63 47 51 48 48 47 
63 63 59 58 51 51 49 52 54 
52 53 74 79 67 69 66 62 72 
58 52 52 55 55 52 55 54 50 
53 60 60 57 55 50 50 43 63 
65 62 63 43 47 49 38 39 48 
44 44 44 46 51 54 50 52 51 
52 45 47 50 47 42 44 55 63 
62 53 46 61 58 58 59 55 54 
53 60 58 57 48 48 52 47 54 
58 59 57 56 45 45 47 56 50 
49 63 60 52 53 68 73 75 69 
64 47 74 69 44 80 75 74 81 
80 48 84 85 77 77 52 84 86 
55 85 78 55 90 85 80 89 96 
89 80 72 106 102 86 75 73 96 
79 99 94 105 89 80 74 65 68 
74 75 82 71 58 67 87 79 62 
56 62 59 58 57 55 61 62 55 
53 57 57 55 65 40 47 55 55 
53 53 59 45 60 69 56 49 39 
40 45 80 70 78 74 94 59 60 
55 55 54 56 78 57 56 77 85 
78 78 86 91 69 56 62 58 68 
71 56 58 50 54 60 58 61 84 
75 89 82 79 65 58 58 57 58 
54 67 73 82 69 61 54 54 54 
52 54 54 54 54 55 52 54 43 
70 62 54 72 74 72 78 65 44 
52 42 55 48 61 53 58 62 56 
56 56 58 66 68 67 61 64 64 
54 72 83 74 66 69 79 82 71 
83 72 61 68 62 77 60 43 50 
52 53 49 47 57 54 48 64 61 
67 67 66 49 46 68 56 69 60 
71 54 56 79 62 56 50 56 79 
69 71 67 72 58 69 54 61 59 
60 62 58 58 51 50 56 55 52 
49 54 60 44 46 46 49 45 43 
43 42 42 46 44 44 42 48 50 
45 41 51 46 44 58 55 48 61 
49 54 57 64 48 55 55 61 68 
65 49 55 59 47 62 66 64 45 
45 65 58 62 51 50 69 64 63 
70 53 74 75 70 80 54 49 81 
74 78 44 73 47 49 79 73 77 
51 55 48 46 84 78 72 76 95 
63 69 90 77 60 96 77 102 104 
75 74 75 98 89 79 79 81 64 
71 70 69 53 74 64 53 52 67 
71 56 59 56 54 59 65 69 69 
60 55 60 54 52 53 72 60 43 
44 48 52 52 68 71 47 67 69 
69 57 51 58 56 71 57 54 58 
53 75 65 53 60 56 60 59 76 
75 50 55 58 57 79 69 76 57 
50 57 60 83 65 57 60 66 59 
54 66 57 70 67 72 79 75 75 
70 63 61 56 56 52 51 55 55 
54 73 67 68 66 64 50 42 44 
49 47 43 49 52 53 63 61 61 
55 56 65 56 74 71 80 83 82 
83 50 55 57 52 52 52 49 49 
54 61 59 60 63 80 79 79 80 
81 80 86 86 62 62 83 91 65 
41 58 52 58 66 69 64 70 70 
74 79 79 74 48 47 59 61 65 
55 49 48 49 51 51 50 53 53 
50 64 64 85 85 71 48 67 52 
77 77 72 72 66 66 70 72 68 
68 68 75 79 79 45 55 61 55 
62 52 54 39 49 48 42 42 42 
38 46 43 50 50 43 44 42 41 
54 45 42 42 51 53 65 68 47 
48 49 51 68 68 50 65 61 45 
64 66 44 47 61 66 65 44 51 
67 50 73 73 52 81 77 56 56 
88 52 80 87 60 53 51 48 75 
72 72 73 77 46 56 75 66 84 
81 83 95 62 62 87 99 56 69 
98 56 79 88 94 93 73 73 76 
88 57 64 68 68 67 71 72 58 
61 66 62 70 57 59 60 67 62 
81 67 65 53 70 52 52 73 71 
73 61 61 75 70 80 76 50 76 
71 74 71 58 60 60 67 82 75 
52 50 50 53 88 73 74 68 69 
70 75 53 53 50 52 86 81 78 
71 74 75 67 62 61 58 64 61 
61 81 69 71 61 64 59 62 55 
59 48 75 73 53 89 86 64 64 
62 68 69 68 59 59 54 52 68 
81 71 66 49 71 73 73 74 68 
55 56 55 57 71 68 68 62 64 
69 59 54 61 69 53 58 58 58 
70 69 69 69 61 63 68 68 63 
62 56 68 72 51 53 65 64 56 
63 63 58 67 72 74 73 67 67 
61 56 64 72 77 74 68 67 74 
74 63 62 57 62 70 76 62 65 
55 64 69 70 70 66 69 69 62 
55 61 69 69 71 77 70 74 72 
72 59 49 51 54 74 68 69 67 
67 67 65 68 77 79 76 75 72 
80 69 80 52 50 51 58 55 55 
58 58 53 51 51 58 58 77 78 
79 57 51 51 51 47 48 49 56 
59 63 61 65 66 68 74 72 80 
50 53 58 58 61 59 59 54 51 
61 74 76 79 79 81 79 86 92 
93 84 84 64 55 54 55 52 61 
62 64 64 56 55 62 68 72 70 
70 48 50 48 89 96 90 95 80 
50 63 58 63 63 62 51 61 54 
65 65 63 66 67 71 70 70 69 
68 68 73 72 73 72 74 79 78 
38 44 46 42 59 62 60 53 55 
42 58 54 44 48 37 43 43 37 
42 38 42 43 51 47 44 49 48 
68 60 58 48 50 69 65 50 46 
70 68 51 68 44 45 67 62 62 
45 44 45 49 73 66 61 47 44 
47 82 83 58 91 89 91 99 53 
53 100 92 53 49 49 46 51 82 
82 83 46 54 87 88 87 92 76 
85 85 56 58 99 100 98 50 55 
54 55 100 92 93 69 79 68 65 
51 57 51 64 67 67 62 65 58 
61 75 62 83 56 101 91 66 60 
66 60 62 77 100 103 102 52 98 
96 47 88 50 45 47 45 79 87 
83 53 53 51 49 86 82 82 84 
53 51 79 69 75 64 59 57 61 
59 60 56 56 66 55 58 58 57 
57 60 66 68 61 69 68 65 62 
64 50 62 62 61 63 68 68 71 
65 73 74 70 68 61 51 48 49 
68 61 63 61 68 60 61 69 68 
68 67 69 68 59 48 64 74 75 
72 75 68 68 68 69 78 95 85 
74 92 79 74 80 74 76 78 69 
65 66 65 70 73 77 72 78 78 
83 79 75 78 67 72 51 52 59 
58 76 76 70 68 60 60 54 55 
54 56 56 55 62 66 61 58 63 
58 53 54 54 65 71 73 73 52 
64 53 49 60 64 68 66 62 63 
63 57 61 68 80 80 93 91 94 
86 84 52 77 72 67 62 72 78 
81 81 71 55 55 55 52 58 58 
58 57 52 51 54 52 47 48 76 
70 81 82 81 50 46 47 91 95 
77 46 59 62 60 65 51 65 66 
62 62 67 67 68 67 64 70 69 
69 74 74 74 75 90 79 92 94 
45 59 60 63 57 60 48 45 58 
58 54 58 50 45 60 55 51 41 
46 47 61 51 63 62 62 50 64 
48 46 70 45 42 43 45 45 45 
64 66 63 43 72 72 80 67 88 
45 49 53 51 93 98 51 96 97 
95 96 97 49 51 86 53 81 79 
49 46 52 81 92 79 79 50 50 
50 91 89 47 80 54 53 74 80 
63 62 71 63 59 63 72 85 61 
76 63 91 58 54 103 106 55 55 
87 83 57 57 83 87 73 50 48 
52 45 80 69 54 49 55 52 72 
72 57 80 78 77 81 67 81 55 
54 57 74 59 74 69 55 71 55 
58 60 60 73 82 59 57 67 79 
54 57 83 87 72 76 76 76 73 
63 52 50 58 51 81 79 54 56 
61 58 55 55 49 87 55 54 62 
66 62 61 65 67 61 64 60 61 
63 60 45 52 60 66 58 70 74 
74 77 77 59 56 54 62 49 45 
49 72 72 70 73 68 69 62 69 
66 67 69 68 70 70 66 63 61 
51 74 74 75 73 78 68 65 67 
64 67 93 97 98 93 93 88 82 
75 76 66 66 64 66 69 69 73 
86 84 85 70 73 69 67 81 74 
71 75 66 64 69 63 60 53 51 
60 71 76 76 74 70 49 45 44 
52 50 60 59 57 56 57 57 57 
67 64 65 67 69 70 70 66 70 
70 65 65 69 77 80 77 81 68 
63 60 71 68 70 76 60 53 53 
51 62 54 83 86 68 68 56 56 
54 54 54 49 50 91 89 91 88 
90 45 47 58 55 56 52 53 56 
60 53 60 61 60 60 62 71 71 
67 64 72 65 73 77 80 87 92 
89 89 58 44 45 46 54 51 56 
47 47 52 55 45 48 48 60 59 
65 63 47 50 60 69 62 69 50 
49 48 48 73 71 48 44 71 69 
45 45 45 46 46 79 71 71 90 
87 46 50 49 95 110 110 94 51 
50 94 47 42 47 88 81 74 45 
45 77 64 65 43 73 81 72 48 
45 47 83 45 74 65 68 55 61 
60 63 93 89 71 74 63 113 112 
67 120 122 48 97 106 116 104 82 
70 72 51 51 51 74 69 50 84 
84 83 75 80 54 56 81 73 82 
87 58 63 56 69 72 80 81 79 
60 59 64 65 72 77 84 85 63 
56 56 53 52 58 50 66 56 58 
57 65 60 65 65 65 60 60 57 
60 54 62 57 63 63 61 70 61 
71 72 67 63 68 68 61 74 66 
62 62 65 71 69 66 71 74 76 
72 74 69 65 70 71 56 44 45 
62 65 60 72 67 82 68 81 66 
65 64 66 55 66 62 95 95 82 
72 92 89 88 84 73 73 63 75 
80 74 83 79 74 71 76 65 76 
65 70 69 71 64 69 70 57 75 
76 80 81 84 63 69 64 60 53 
49 54 49 51 55 51 71 66 65 
65 61 67 60 60 70 68 73 73 
69 74 69 75 55 51 54 58 62 
65 68 67 63 75 68 80 77 74 
71 76 78 65 62 63 77 78 76 
69 73 62 51 52 55 54 59 71 
54 50 65 74 66 70 54 50 49 
47 49 47 54 49 45 85 84 81 
79 81 63 52 52 58 57 59 62 
63 61 61 66 73 67 74 78 71 
76 67 73 67 65 72 77 75 78 
86 88 81 80 81 43 56 58 54 
55 55 61 43 56 55 48 43 60 
60 59 47 61 45 46 68 62 60 
46 48 66 66 68 69 66 71 46 
45 79 75 44 44 52 78 50 52 
89 89 47 95 47 111 108 46 47 
105 114 105 44 44 43 94 86 44 
89 77 70 85 64 70 85 67 66 
45 42 44 66 47 44 73 68 73 
68 47 45 65 62 45 46 83 105 
58 46 51 114 77 57 110 126 120 
119 65 120 112 80 70 65 111 116 
111 110 47 47 65 89 95 89 78 
41 46 44 75 48 43 86 48 50 
59 49 89 87 82 85 86 57 58 
62 67 96 95 93 65 65 88 92 
87 67 56 53 52 53 61 63 52 
50 50 58 57 54 59 62 56 62 
64 60 66 62 57 57 55 70 62 
75 71 64 61 67 70 73 74 74 
77 77 72 70 73 72 76 63 61 
76 71 77 76 75 60 62 67 73 
53 51 55 59 68 63 66 64 67 
69 72 69 63 84 72 80 74 67 
70 79 67 69 69 69 62 69 71 
69 65 70 72 73 72 76 85 84 
84 76 82 73 72 66 69 70 80 
74 71 68 67 65 54 55 64 74 
74 79 73 77 78 75 72 62 62 
63 51 54 58 66 76 72 66 64 
69 69 75 80 51 61 72 58 74 
64 66 61 64 54 58 54 52 58 
65 73 52 78 80 84 76 80 54 
58 77 63 55 49 44 57 51 51 
83 76 68 63 60 58 69 56 59 
49 51 49 44 47 44 42 66 76 
72 62 66 66 70 67 82 75 78 
83 82 83 75 75 76 78 78 76 
80 76 75 75 69 63 39 70 54 
62 78 58 78 44 49 49 60 56 
47 58 62 62 63 43 47 59 44 
60 76 46 43 46 46 78 46 90 
87 87 56 83 54 55 54 103 47 
111 103 50 55 47 116 106 116 46 
49 115 100 88 92 90 40 44 46 
93 40 40 42 43 94 93 93 42 
40 69 83 45 45 62 63 68 46 
44 43 58 97 63 97 109 78 129 
119 126 43 43 48 121 119 59 45 
111 121 56 66 108 110 108 72 111 
112 67 67 72 112 98 106 49 86 
77 81 81 81 48 46 82 79 54 
85 58 77 77 66 62 88 77 67 
62 65 67 62 88 63 63 88 65 
66 62 58 48 55 48 53 47 56 
57 59 54 76 72 57 62 68 60 
55 55 62 58 60 54 57 65 63 
66 67 70 76 77 75 76 77 78 
76 76 66 70 62 69 57 72 75 
76 69 68 64 63 75 77 66 59 
60 60 48 70 71 75 66 69 67 
62 61 62 59 59 84 76 62 58 
64 65 70 94 88 84 76 89 70 
54 67 62 56 60 90 82 62 56 
62 59 60 58 65 78 82 80 80 
61 65 77 82 70 91 76 81 85 
89 91 68 64 61 68 73 85 79 
71 60 60 65 62 66 77 71 84 
85 89 56 64 57 69 65 51 50 
49 73 58 73 84 81 58 57 51 
54 54 54 83 65 56 49 51 50 
55 58 56 49 60 67 61 57 58 
56 53 49 49 44 66 70 73 70 
74 76 67 71 80 76 75 87 90 
85 78 77 77 85 72 77 70 70 
65 59 63 69 59 60 48 51 72 
76 59 86 70 53 46 62 59 67 
67 43 62 68 44 46 47 64 58 
47 47 49 76 65 84 84 51 51 
88 94 52 111 103 93 112 57 61 
53 44 112 116 53 115 118 49 44 
118 112 92 39 41 85 48 47 86 
84 85 76 50 47 53 66 61 77 
45 43 110 112 46 43 127 106 121 
119 46 54 54 110 101 105 72 108 
113 110 109 60 105 119 119 62 49 
54 81 107 48 52 81 69 75 49 
52 75 67 57 62 60 70 72 69 
70 70 83 70 84 80 81 81 80 
60 59 58 59 55 61 52 46 47 
52 52 50 47 55 59 59 57 58 
57 55 62 72 63 67 78 76 81 
81 76 70 84 73 63 58 55 59 
70 76 74 79 81 76 61 57 56 
60 59 61 62 63 62 77 77 77 
64 68 57 52 52 47 52 56 52 
67 69 78 66 53 67 68 48 89 
97 83 76 85 86 67 76 68 63 
65 60 71 64 69 69 60 57 52 
46 54 46 40 47 50 47 56 47 
47 89 94 98 99 101 95 55 60 
53 59 59 59 63 68 63 64 59 
58 62 58 55 54 86 87 80 91 
51 51 53 53 58 58 57 87 92 
89 60 61 61 70 70 81 80 92 
95 96 90 91 90 79 68 78 73 
82 91 89 91 96 81 63 75 91 
49 46 51 72 86 77 86 62 56 
58 50 50 57 85 84 68 82 76 
56 59 56 52 49 53 51 57 61 
57 51 51 51 46 47 48 61 59 
74 73 78 76 78 83 85 89 98 
94 98 87 80 71 68 65 63 63 
54 59 55 59 58 58 57 58 55 
49 48 48 52 67 60 94 86 92 
73 82 77 95 61 75 71 64 76 
90 47 86 80 85 76 50 64 73 
72 49 49 62 50 78 77 86 64 
51 49 86 86 55 55 45 88 94 
101 102 90 57 111 49 49 114 56 
49 109 109 111 114 109 105 54 99 
40 49 37 86 87 87 92 49 40 
80 51 51 70 70 79 46 52 64 
73 85 115 97 97 46 114 49 107 
100 87 96 97 98 96 101 50 101 
104 62 108 68 67 57 118 112 55 
119 57 101 115 66 66 101 122 109 
63 85 88 58 67 51 54 53 52 
59 64 67 66 66 71 65 50 69 
69 84 80 64 63 78 64 63 62 
61 61 61 56 53 52 49 54 55 
58 54 55 56 60 63 63 63 59 
63 87 87 87 81 70 77 73 76 
74 85 97 85 78 94 84 62 86 
86 69 64 101 105 105 91 107 99 
82 67 66 62 66 69 73 73 83 
75 82 63 74 61 66 67 70 65 
71 59 56 54 43 94 102 100 43 
40 62 49 54 49 53 53 48 48 
50 55 56 59 96 98 103 52 52 
59 56 60 95 65 58 53 57 54 
55 62 59 67 70 96 103 105 94 
96 70 80 86 83 86 102 102 88 
89 85 95 95 89 81 86 92 97 
78 86 101 100 100 89 96 48 61 
48 49 48 73 52 85 82 67 66 
61 58 56 56 50 60 56 55 65 
46 52 48 57 73 85 82 88 88 
92 98 92 98 102 102 98 91 87 
75 71 68 64 59 61 58 51 54 
53 53 57 57 54 56 56 60 62 
60 56 45 51 47 50 53 53 50 
48 78 86 77 51 68 93 88 71 
85 88 92 92 90 88 50 83 93 
50 67 71 78 45 46 45 78 86 
88 55 46 86 87 100 49 51 108 
104 50 101 44 52 102 106 47 100 
91 82 88 43 49 78 79 73 72 
51 76 54 53 73 88 46 54 55 
48 46 108 97 97 92 54 93 56 
50 99 85 53 56 103 99 107 109 
104 65 108 71 61 60 113 116 119 
58 58 68 122 69 123 120 120 77 
95 65 56 65 59 57 64 96 55 
72 68 69 68 50 56 63 69 68 
65 70 77 66 68 65 81 86 77 
78 66 64 65 60 54 56 53 54 
54 56 60 59 58 57 61 59 78 
78 73 74 76 85 79 77 88 76 
81 87 96 96 87 106 104 107 106 
110 107 66 81 65 71 74 106 105 
93 81 85 85 73 74 68 64 62 
72 72 72 72 77 76 70 70 59 
59 74 100 66 74 62 54 55 55 
48 48 101 104 55 59 57 64 74 
64 78 105 109 70 57 54 56 58 
63 63 68 72 74 75 105 112 102 
113 118 119 74 79 84 85 85 91 
99 111 111 106 114 116 117 100 95 
101 99 92 104 99 107 101 104 107 
61 63 63 52 49 67 55 76 76 
67 68 62 53 61 61 55 54 55 
63 55 69 80 65 56 65 80 82 
85 90 87 97 103 107 91 97 81 
86 78 71 64 58 59 52 50 50 
48 50 49 50 54 80 88 88 84 
80 79 84 78 54 51 59 65 59 
60 66 52 47 47 50 67 77 87 
89 53 89 91 50 61 51 87 93 
84 79 74 48 53 83 52 45 45 
89 81 90 80 43 45 96 102 87 
44 78 47 47 99 85 52 53 53 
95 86 94 94 56 54 57 63 65 
67 79 66 76 68 76 51 60 60 
76 85 52 92 75 89 61 61 85 
94 83 57 92 101 104 56 112 105 
68 68 109 114 72 117 114 114 108 
76 119 75 68 78 117 114 83 79 
73 107 117 66 98 85 76 66 76 
63 67 74 63 70 70 72 77 63 
62 73 80 72 71 82 80 65 69 
77 70 68 62 68 60 63 69 67 
70 56 56 58 65 71 62 64 62 
69 67 77 72 65 75 75 74 84 
77 100 100 83 76 77 100 105 107 
112 112 109 108 108 112 93 97 70 
67 68 68 67 74 78 80 76 74 
70 80 72 72 79 80 83 76 79 
83 72 108 109 109 64 68 74 72 
78 64 70 103 103 97 99 64 63 
63 53 67 61 62 64 64 103 108 