# vtk DataFile Version 4.2
vtk output
ASCII
DATASET POLYDATA
POINTS 12650 float
0.450928 -0.207369 0 0.454072 -0.20933 0 0.460252 -0.195366 0 
0.442603 -0.221052 0 0.447467 -0.223099 0 0.435664 -0.236697 0 
0.440445 -0.23666 0 0.433013 -0.25 0 0.476198 -0.152432 0 
0.480631 -0.137819 0 0.474161 -0.139407 0 0.464383 -0.173609 0 
0.471321 -0.166903 0 0.46501 -0.162176 0 0.466004 -0.181219 0 
0.448758 -0.192442 0 0.454595 -0.178261 0 0.448938 -0.201015 0 
0.439363 -0.217058 0 0.434619 -0.214721 0 0.436346 -0.204979 0 
0.429991 -0.234109 0 0.42663 -0.231049 0 0.422224 -0.22995 0 
0.416162 -0.246829 0 0.4129 -0.2437 0 0.419157 -0.250226 0 
0.421832 -0.253938 0 0.40335 -0.256594 0 0.40705 -0.262324 0 
0.393585 -0.269992 0 0.409882 -0.271588 0 0.390819 -0.293924 0 
0.405258 -0.292859 0 0.419683 -0.271784 0 0.394804 -0.278278 0 
0.375653 -0.315028 0 0.389776 -0.313169 0 0.377303 -0.283974 0 
0.377551 -0.294141 0 0.361059 -0.306229 0 0.362842 -0.315464 0 
0.373277 -0.332663 0 0.35512 -0.333213 0 0.337863 -0.335263 0 
0.320974 -0.352158 0 0.337168 -0.353767 0 0.355804 -0.351289 0 
0.337403 -0.368998 0 0.312463 -0.374587 0 0.318121 -0.385745 0 
0.493844 -0.0782172 0 0.496002 -0.0630995 0 0.485146 -0.0767327 0 
0.486547 -0.0614986 0 0.484218 -0.0965883 0 0.47537 -0.0945412 0 
0.491225 -0.093262 0 0.4719 -0.111954 0 0.488148 -0.10822 0 
0.450735 -0.141756 0 0.462006 -0.132453 0 0.459948 -0.120221 0 
0.473722 -0.126039 0 0.484615 -0.123077 0 0.451392 -0.152517 0 
0.462823 -0.143715 0 0.447277 -0.134663 0 0.451636 -0.162534 0 
0.440786 -0.170732 0 0.439848 -0.1605 0 0.462896 -0.154732 0 
0.430282 -0.178731 0 0.451451 -0.172934 0 0.440817 -0.181504 0 
0.429029 -0.190354 0 0.43228 -0.196229 0 0.420002 -0.209989 0 
0.426656 -0.209375 0 0.442018 -0.191379 0 0.421156 -0.190637 0 
0.417305 -0.205119 0 0.408024 -0.223177 0 0.425433 -0.218178 0 
0.413885 -0.225386 0 0.402406 -0.235073 0 0.398746 -0.232373 0 
0.416728 -0.229754 0 0.406005 -0.23784 0 0.409489 -0.240731 0 
0.397139 -0.240866 0 0.388842 -0.246469 0 0.394958 -0.246191 0 
0.401503 -0.244657 0 0.398497 -0.250345 0 0.395493 -0.256795 0 
0.38742 -0.267073 0 0.388459 -0.252356 0 0.377426 -0.253085 0 
0.384064 -0.259101 0 0.37808 -0.257944 0 0.380971 -0.265005 0 
0.370515 -0.273412 0 0.374187 -0.277758 0 0.356879 -0.299357 0 
0.343491 -0.319488 0 0.367768 -0.268148 0 0.367875 -0.261795 0 
0.351398 -0.278985 0 0.35669 -0.282884 0 0.358963 -0.28923 0 
0.319032 -0.337264 0 0.29801 -0.401485 0 0.338971 -0.288838 0 
0.341053 -0.294843 0 0.321379 -0.300653 0 0.339428 -0.302449 0 
0.336387 -0.312124 0 0.323291 -0.325178 0 0.300019 -0.366424 0 
0.275813 -0.381637 0 0.287967 -0.387579 0 0.268356 -0.406471 0 
0.277121 -0.416178 0 0.318553 -0.311233 0 0.311785 -0.32305 0 
0.300161 -0.350839 0 0.280148 -0.365208 0 0.255509 -0.429785 0 
0.243519 -0.416404 0 0.296814 -0.32486 0 0.297754 -0.338826 0 
0.281263 -0.324994 0 0.279933 -0.338097 0 0.27749 -0.351953 0 
0.259508 -0.364236 0 0.257472 -0.378807 0 0.256793 -0.397133 0 
0.238628 -0.394076 0 0.222376 -0.41242 0 0.220058 -0.430646 0 
0.233231 -0.442271 0 0.197501 -0.418807 0 0.210344 -0.453603 0 
0.493567 -0.0223309 0 0.499695 -0.0174497 0 0.499995 -0.00218165 0 
0.486497 -0.014453 0 0.477435 -0.017124 0 0.483801 -0.0333335 0 
0.498929 -0.0327016 0 0.485968 -0.0475249 0 0.497698 -0.0479229 0 
0.466345 -0.0814003 0 0.475488 -0.0606783 0 0.465414 -0.066451 0 
0.475179 -0.0415828 0 0.47562 -0.0779701 0 0.465513 -0.0985636 0 
0.456928 -0.0834977 0 0.455678 -0.0995848 0 0.455355 -0.113964 0 
0.44721 -0.122918 0 0.445188 -0.11381 0 0.438845 -0.135287 0 
0.430576 -0.140945 0 0.437378 -0.122068 0 0.430841 -0.15314 0 
0.437821 -0.151832 0 0.427541 -0.171469 0 0.422374 -0.168424 0 
0.414389 -0.182715 0 0.416244 -0.188785 0 0.412299 -0.203783 0 
0.408088 -0.202364 0 0.402649 -0.214472 0 0.406399 -0.196817 0 
0.407719 -0.215972 0 0.401207 -0.223288 0 0.395908 -0.220105 0 
0.395051 -0.229714 0 0.391317 -0.2271 0 0.392364 -0.239023 0 
0.388506 -0.236965 0 0.383546 -0.236434 0 0.379318 -0.242996 0 
0.383379 -0.245258 0 0.372841 -0.249576 0 0.363485 -0.252923 0 
0.364077 -0.257948 0 0.356397 -0.265546 0 0.347167 -0.265162 0 
0.354262 -0.271962 0 0.353465 -0.258828 0 0.331459 -0.269742 0 
0.342473 -0.27188 0 0.33778 -0.2793 0 0.328055 -0.288826 0 
0.322171 -0.284507 0 0.328327 -0.275922 0 0.312936 -0.294677 0 
0.30189 -0.304033 0 0.301317 -0.312732 0 0.196395 -0.439066 0 
0.315311 -0.281819 0 0.3043 -0.290164 0 0.294244 -0.298051 0 
0.281513 -0.305277 0 0.283226 -0.314662 0 0.257375 -0.35182 0 
0.239786 -0.373457 0 0.223034 -0.385618 0 0.213892 -0.400428 0 
0.196038 -0.396631 0 0.186909 -0.463751 0 0.175244 -0.43699 0 
0.168049 -0.456382 0 0.162985 -0.47269 0 0.146196 -0.455065 0 
0.26594 -0.313566 0 0.261288 -0.325253 0 0.265346 -0.336103 0 
0.239196 -0.332884 0 0.249056 -0.339457 0 0.237949 -0.352697 0 
0.215447 -0.358855 0 0.229124 -0.365351 0 0.210312 -0.376893 0 
0.177685 -0.415677 0 0.155207 -0.418438 0 0.152332 -0.436211 0 
0.171165 -0.399914 0 0.480193 0.0264963 0 0.473306 0.0122525 0 
0.481098 0.00433089 0 0.490516 0.00341198 0 0.489344 0.0211762 0 
0.499829 0.0130885 0 0.498097 0.0435779 0 0.489832 0.0402923 0 
0.499196 0.0283464 0 0.471283 -0.00566434 0 0.462501 -0.021448 0 
0.468835 -0.0277807 0 0.459863 -0.0437728 0 0.465815 -0.0490398 0 
0.456753 -0.0666806 0 0.451105 -0.0615444 0 0.454389 -0.039762 0 
0.446885 -0.050218 0 0.442917 -0.0676698 0 0.43994 -0.0533166 0 
0.43678 -0.0710505 0 0.431363 -0.090854 0 0.43739 -0.0864093 0 
0.443617 -0.0820267 0 0.449153 -0.0831486 0 0.431522 -0.0746289 0 
0.426104 -0.0923867 0 0.433976 -0.101616 0 0.447449 -0.0992461 0 
0.421659 -0.0930685 0 0.415298 -0.111069 0 0.420321 -0.109792 0 
0.426555 -0.10624 0 0.427459 -0.117413 0 0.440518 -0.0999889 0 
0.433266 -0.116805 0 0.413314 -0.125858 0 0.408714 -0.124512 0 
0.409324 -0.113072 0 0.41552 -0.0995051 0 0.420188 -0.122309 0 
0.422121 -0.132785 0 0.427589 -0.134216 0 0.414091 -0.136194 0 
0.408111 -0.142855 0 0.416301 -0.141501 0 0.405639 -0.138944 0 
0.407368 -0.153844 0 0.411217 -0.155878 0 0.419786 -0.14766 0 
0.41371 -0.161848 0 0.422704 -0.155009 0 0.400901 -0.161016 0 
0.400952 -0.152126 0 0.402066 -0.136207 0 0.396931 -0.150592 0 
0.415028 -0.170536 0 0.39538 -0.162708 0 0.391154 -0.175511 0 
0.395907 -0.173307 0 0.403008 -0.168272 0 0.404894 -0.17388 0 
0.407365 -0.177929 0 0.407927 -0.186238 0 0.39089 -0.163836 0 
0.396997 -0.180422 0 0.397323 -0.188183 0 0.400888 -0.189911 0 
0.399959 -0.198976 0 0.385018 -0.170647 0 0.386235 -0.176895 0 
0.389869 -0.187181 0 0.392838 -0.200463 0 0.400801 -0.208345 0 
0.385912 -0.185144 0 0.390936 -0.193843 0 0.392719 -0.208053 0 
0.386009 -0.213092 0 0.383754 -0.194145 0 0.37991 -0.19433 0 
0.380882 -0.18522 0 0.379098 -0.202506 0 0.384783 -0.199733 0 
0.386214 -0.204979 0 0.39532 -0.212053 0 0.379387 -0.208687 0 
0.381051 -0.213032 0 0.390282 -0.219118 0 0.375816 -0.194293 0 
0.374628 -0.201944 0 0.369539 -0.205998 0 0.374292 -0.208173 0 
0.376197 -0.216849 0 0.379999 -0.219387 0 0.38379 -0.221938 0 
0.387562 -0.224509 0 0.362648 -0.214897 0 0.368564 -0.211805 0 
0.364735 -0.209295 0 0.372384 -0.214324 0 0.375281 -0.22195 0 
0.370817 -0.220428 0 0.36557 -0.216899 0 0.365686 -0.220774 0 
0.378682 -0.225253 0 0.376857 -0.230063 0 0.384243 -0.231009 0 
0.360189 -0.212123 0 0.369756 -0.224981 0 0.372408 -0.227459 0 
0.367145 -0.231908 0 0.375699 -0.235582 0 0.374106 -0.241747 0 
0.356058 -0.217062 0 0.360452 -0.220398 0 0.353799 -0.221437 0 
0.363489 -0.224858 0 0.357325 -0.228753 0 0.364444 -0.22874 0 
0.358773 -0.232487 0 0.367948 -0.235671 0 0.359855 -0.236263 0 
0.366986 -0.241175 0 0.359403 -0.241539 0 0.365076 -0.247234 0 
0.356231 -0.247359 0 0.35624 -0.224663 0 0.350671 -0.228376 0 
0.350233 -0.232841 0 0.351258 -0.236524 0 0.352911 -0.240228 0 
0.354232 -0.253398 0 0.34749 -0.224904 0 0.348017 -0.219507 0 
0.348745 -0.244785 0 0.346375 -0.248697 0 0.341616 -0.257555 0 
0.344159 -0.252951 0 0.33992 -0.262677 0 0.343441 -0.230082 0 
0.337192 -0.227204 0 0.341399 -0.234052 0 0.341876 -0.238128 0 
0.342747 -0.242646 0 0.331979 -0.247343 0 0.336108 -0.249815 0 
0.331857 -0.254775 0 0.325041 -0.266617 0 0.328238 -0.261118 0 
0.314084 -0.275039 0 0.333872 -0.236564 0 0.333532 -0.242639 0 
0.319724 -0.259356 0 0.31126 -0.268819 0 0.333833 -0.231485 0 
0.32701 -0.235426 0 0.322368 -0.232135 0 0.328913 -0.24028 0 
0.32143 -0.24504 0 0.319617 -0.249664 0 0.320601 -0.254108 0 
0.308522 -0.263917 0 0.286971 -0.292063 0 0.303043 -0.283004 0 
0.123527 -0.455841 0 0.138637 -0.480395 0 0.111501 -0.476961 0 
0.113927 -0.486848 0 0.0889194 -0.49203 0 0.315599 -0.237126 0 
0.319388 -0.240552 0 0.309336 -0.243799 0 0.307742 -0.253498 0 
0.306017 -0.258994 0 0.295257 -0.269294 0 0.292264 -0.26419 0 
0.299319 -0.275265 0 0.291152 -0.282416 0 0.278177 -0.287324 0 
0.268051 -0.294114 0 0.268899 -0.301957 0 0.249932 -0.310945 0 
0.245361 -0.321441 0 0.222916 -0.328822 0 0.227338 -0.343841 0 
0.187058 -0.383185 0 0.196238 -0.367331 0 0.165628 -0.381157 0 
0.152432 -0.392164 0 0.131729 -0.430524 0 0.107935 -0.443893 0 
0.0942452 -0.465723 0 0.0661629 -0.477624 0 0.309097 -0.248098 0 
0.284047 -0.276134 0 0.27775 -0.271523 0 0.266031 -0.277591 0 
0.273645 -0.282205 0 0.252735 -0.301153 0 0.229527 -0.318414 0 
0.211639 -0.339011 0 0.20648 -0.350686 0 0.183842 -0.356582 0 
0.173127 -0.369513 0 0.143189 -0.406112 0 0.123025 -0.411232 0 
0.109458 -0.424866 0 0.0382746 -0.498533 0 0.0636801 -0.495928 0 
0.29616 -0.246674 0 0.297276 -0.251463 0 0.281964 -0.246909 0 
0.283527 -0.25158 0 0.294506 -0.257467 0 0.285144 -0.255892 0 
0.280911 -0.26226 0 0.270759 -0.267907 0 0.262182 -0.287689 0 
0.251516 -0.292608 0 0.233513 -0.308523 0 0.216546 -0.312182 0 
0.198629 -0.33309 0 0.191384 -0.344781 0 0.143096 -0.377458 0 
0.128855 -0.393612 0 0.0883627 -0.431146 0 0.0795874 -0.452884 0 
0.0392759 -0.473625 0 0.0210787 -0.483282 0 0.272159 -0.257663 0 
0.262784 -0.262245 0 0.255167 -0.268017 0 0.254373 -0.27508 0 
[...]
POINT_DATA 12650
FIELD FieldData 2
scalars 1 12650 double
59 62 64 58 59 61 58 63 88 
92 91 75 70 82 75 77 75 66 
57 59 67 61 60 57 65 62 64 
62 63 62 63 60 65 59 63 63 
59 56 72 65 58 58 60 61 61 
65 61 60 56 59 56 81 67 81 
77 86 86 88 92 91 84 90 89 
93 91 84 90 77 90 91 85 84 
91 75 89 93 88 91 67 74 90 
93 88 67 72 72 69 61 58 61 
59 47 52 52 59 60 67 55 53 
58 56 58 63 73 74 67 59 59 
59 69 73 74 54 68 68 69 74 
77 77 57 58 56 56 54 70 70 
64 58 52 51 62 71 55 57 61 
58 58 55 58 58 55 56 69 56 
54 40 41 54 52 57 62 63 73 
73 65 73 52 82 84 71 83 82 
75 75 71 74 77 78 83 90 87 
81 80 87 77 68 76 88 76 65 
65 65 54 59 64 56 52 57 57 
55 59 57 60 52 59 59 62 65 
68 60 70 67 66 59 64 67 68 
68 62 57 57 57 71 71 62 63 
59 57 53 57 53 55 52 56 56 
55 58 62 69 70 58 73 45 45 
49 54 61 52 61 61 44 43 42 
45 46 56 62 55 45 55 63 57 
60 59 64 70 77 65 59 67 81 
58 51 61 58 65 70 70 64 60 
55 66 61 68 70 64 56 68 60 
66 78 80 85 74 51 51 56 53 
85 52 53 53 59 69 79 78 52 
63 72 73 74 56 54 54 69 76 
57 63 69 57 55 54 57 55 58 
66 63 58 59 57 53 55 52 54 
59 53 56 56 53 56 55 60 60 
59 55 53 56 59 64 58 60 61 
56 61 57 53 54 49 58 52 60 
53 51 47 56 50 55 57 53 54 
56 50 51 52 53 50 57 57 56 
55 56 55 53 59 61 59 59 55 
57 58 58 61 63 64 51 58 57 
62 52 58 63 52 58 51 67 67 
55 46 49 55 66 50 58 55 45 
49 64 53 65 67 68 62 65 59 
54 58 52 73 65 72 66 65 59 
56 56 67 73 74 62 68 57 65 
56 56 64 64 69 65 59 72 66 
63 55 50 51 50 56 62 68 68 
61 56 63 64 64 60 66 53 53 
60 47 53 53 59 63 56 74 57 
71 74 64 61 60 52 52 52 51 
57 47 46 56 67 70 70 63 73 
67 69 63 67 62 64 60 68 59 
59 63 55 51 52 52 52 50 50 
49 44 61 61 64 63 63 63 65 
70 73 68 66 66 54 51 56 47 
59 50 59 44 46 53 48 48 60 
56 56 57 63 67 65 66 72 73 
73 70 68 60 51 48 56 64 65 
65 61 61 68 57 61 63 64 59 
54 55 60 57 58 59 56 58 56 
55 46 45 50 52 49 48 53 49 
45 48 50 52 49 50 53 51 53 
61 57 54 50 53 51 49 48 51 
51 55 50 44 60 69 60 62 67 
62 62 57 57 49 49 44 50 56 
56 52 52 57 57 55 54 56 51 
52 48 49 45 48 51 50 45 47 
51 58 59 62 64 66 66 67 74 
72 72 72 71 75 72 63 65 64 
66 63 55 58 58 58 49 54 60 
63 63 62 58 62 64 72 73 54 
54 52 51 52 47 54 60 61 58 
54 57 66 55 65 56 63 53 50 
46 54 50 53 63 49 58 61 64 
50 56 58 66 68 63 44 58 55 
56 60 74 56 59 64 72 63 54 
49 45 47 46 44 61 70 62 55 
52 48 67 65 64 65 58 60 56 
56 60 60 58 52 59 64 63 59 
62 57 57 63 62 63 68 67 54 
51 59 46 42 42 54 58 60 49 
65 61 42 45 47 50 60 57 51 
47 40 41 54 50 44 60 46 51 
39 45 65 60 45 55 45 50 55 
47 42 39 43 47 55 47 42 40 
50 47 44 44 44 46 49 43 48 
46 42 47 48 49 45 45 50 53 
54 51 52 47 54 54 52 49 55 
53 54 50 46 56 55 58 53 54 
55 49 49 51 55 55 53 50 65 
63 58 50 46 60 53 53 53 50 
50 53 49 64 53 52 52 49 56 
62 55 48 50 50 52 53 50 50 
51 74 73 75 70 56 72 55 57 
66 54 53 53 54 67 63 53 49 
47 49 55 59 58 59 55 58 56 
55 63 73 59 68 62 59 71 61 
58 61 71 62 69 61 58 75 75 
72 54 58 69 64 64 60 62 54 
54 50 54 61 63 67 64 65 48 
44 55 44 49 58 47 52 58 54 
59 42 51 50 46 47 43 50 52 
53 53 55 59 57 53 57 59 57 
54 59 49 52 62 59 60 54 53 
59 51 47 57 61 72 73 73 78 
75 76 60 68 68 57 62 59 59 
54 45 52 57 44 51 62 56 62 
72 61 59 61 52 60 81 86 63 
59 60 58 49 48 48 44 67 60 
52 48 50 48 48 60 62 55 58 
55 63 67 78 60 66 52 64 54 
56 58 58 60 58 54 57 57 56 
62 53 49 51 54 54 55 53 53 
73 70 69 56 54 53 65 68 72 
60 66 46 47 61 57 61 57 53 
61 58 57 55 60 65 74 79 67 
69 66 62 72 58 52 52 55 52 
60 60 57 55 50 63 65 62 63 
47 49 48 44 44 44 51 54 50 
52 51 45 47 50 47 42 44 53 
46 59 55 54 53 60 58 57 54 
58 59 57 56 56 63 60 68 73 
75 69 64 74 69 80 75 74 81 
80 84 85 77 77 84 86 85 78 
90 85 80 89 96 89 80 106 102 
86 96 79 99 94 105 89 80 74 
82 71 87 79 62 62 59 58 61 
62 55 53 57 55 65 53 53 59 
60 69 56 46 49 39 45 40 80 
70 78 74 94 59 60 55 55 54 
56 78 57 56 77 85 78 78 86 
91 69 56 62 58 68 71 56 58 
50 54 60 58 61 84 75 89 82 
79 65 58 58 57 58 54 67 73 
82 69 61 54 54 54 52 54 54 
54 54 55 52 54 43 70 62 54 
72 74 72 78 65 44 52 42 55 
48 61 53 58 62 56 56 56 58 
66 68 67 61 64 64 54 72 83 
68 56 55 69 79 62 56 50 56 
79 69 71 67 72 58 69 54 61 
59 60 62 58 58 51 50 55 52 
49 54 60 49 45 43 43 42 46 
48 50 45 41 46 44 61 49 57 
64 48 61 68 65 59 62 66 64 
65 58 62 69 64 63 70 74 75 
70 80 81 74 78 73 79 73 77 
84 78 72 76 95 90 96 102 104 
98 89 81 71 70 69 74 64 67 
71 56 59 59 65 69 69 60 60 
72 60 44 48 52 68 71 47 67 
69 69 57 51 58 56 71 57 54 
58 53 75 65 53 60 56 60 59 
76 75 50 55 58 57 79 69 76 
57 50 57 60 83 65 57 60 66 
59 54 66 57 70 67 72 79 75 
75 70 63 61 56 56 52 51 55 
55 54 73 67 68 66 64 50 42 
44 49 47 43 49 52 53 63 61 
61 55 56 65 56 74 71 80 83 
82 83 50 55 57 52 52 52 49 
49 54 61 59 60 63 64 64 85 
85 71 67 52 77 77 72 72 66 
66 70 72 68 68 68 75 79 79 
55 61 55 62 52 54 49 48 42 
42 38 46 43 50 50 42 41 54 
45 42 42 65 68 68 68 65 61 
64 66 61 66 65 67 73 73 81 
77 88 80 87 75 72 72 73 77 
75 84 81 83 95 87 99 98 79 
88 94 93 73 88 57 64 68 68 
67 71 58 61 66 62 59 60 67 
62 81 67 65 73 71 73 61 61 
75 70 80 76 76 71 74 71 58 
60 60 67 82 75 88 73 74 68 
69 70 75 53 53 86 81 78 71 
74 75 67 62 61 58 64 61 61 
81 69 71 61 64 59 62 55 59 
48 75 73 89 86 64 64 62 68 
69 68 59 59 54 52 53 52 68 
81 71 66 49 71 73 73 74 68 
55 56 55 57 71 68 68 62 64 
69 59 54 61 69 53 58 58 58 
70 69 69 69 61 63 68 68 63 
62 56 68 72 51 53 65 64 56 
63 63 58 67 72 74 73 67 67 
61 56 64 72 77 74 68 67 74 
74 63 62 57 62 70 76 62 65 
55 64 69 70 70 66 69 69 62 
55 61 69 69 71 77 70 74 72 
72 59 49 51 54 74 68 69 67 
67 67 65 68 77 79 76 75 72 
80 69 80 52 50 51 58 55 55 
58 58 53 51 51 58 58 77 78 
79 57 51 51 51 47 48 49 56 
59 63 61 65 66 68 74 72 80 
50 53 58 58 61 59 59 54 51 
61 68 72 70 65 89 96 90 95 
80 71 63 58 63 63 62 51 61 
54 65 65 63 66 67 71 70 70 
69 68 68 73 72 73 72 74 79 
78 59 62 60 53 55 58 54 48 
37 43 37 42 38 43 51 68 60 
58 69 65 70 68 68 67 62 62 
73 66 61 82 83 91 89 91 99 
100 92 82 82 83 87 88 87 92 
76 85 85 99 100 98 100 92 93 
69 79 51 57 51 64 58 61 75 
62 83 56 101 91 77 100 103 102 
98 96 88 79 87 83 86 82 82 
84 53 49 51 51 79 69 75 64 
59 57 61 59 60 56 56 66 55 
58 58 57 57 60 66 68 61 69 
68 65 62 64 50 62 62 61 63 
68 68 71 65 73 74 70 68 61 
51 48 49 68 61 63 61 68 60 
61 69 68 68 67 69 68 59 48 
64 74 75 72 75 68 68 68 69 
78 95 85 74 92 79 74 80 74 
76 78 69 65 66 65 70 73 77 
72 78 78 83 79 75 78 67 72 
51 52 59 58 76 76 70 68 60 
60 54 55 54 56 56 55 62 66 
61 58 63 58 53 54 54 65 71 
73 73 52 64 53 49 60 64 68 
66 62 63 63 57 61 68 76 70 
81 82 81 91 95 77 59 62 60 
65 51 65 66 62 62 67 67 68 
67 64 70 69 69 74 74 74 75 
90 79 92 94 59 60 63 57 60 
58 58 54 58 50 60 55 51 41 
46 61 51 63 62 62 64 70 64 
66 63 72 72 80 67 88 93 98 
96 97 95 96 97 86 81 79 81 
92 79 79 91 89 80 74 80 63 
62 71 63 63 72 85 61 76 91 
103 106 87 83 83 87 73 80 69 
72 72 80 78 77 81 67 81 55 
53 54 74 59 74 69 55 71 55 
58 60 60 73 82 59 57 67 79 
54 57 83 87 72 76 76 76 73 
63 52 50 58 51 81 79 54 56 
61 58 55 55 49 87 55 54 62 
66 62 61 65 67 61 64 60 61 
63 60 45 52 60 66 58 70 74 
74 77 77 59 56 54 62 49 45 
49 72 72 70 73 68 69 62 69 
66 67 69 68 70 70 66 63 61 
51 74 74 75 73 78 68 65 67 
64 67 93 97 98 93 93 88 82 
75 76 66 66 64 66 69 69 73 
86 84 85 70 73 69 67 81 74 
71 75 66 64 69 63 60 53 51 
60 71 76 76 74 70 49 45 44 
52 50 60 59 57 56 57 57 57 
67 64 65 67 69 70 70 66 70 
70 65 65 69 83 86 68 68 50 
91 89 91 88 90 58 55 56 52 
53 56 60 53 60 61 60 60 62 
71 71 67 64 72 65 73 77 80 
87 92 89 89 58 54 51 56 52 
55 60 59 65 63 60 69 62 69 
73 71 71 69 79 71 71 90 87 
95 110 110 94 94 88 81 74 77 
64 65 73 81 72 83 74 65 68 
61 93 89 113 112 120 122 97 106 
116 104 82 70 72 74 69 84 84 
83 75 80 81 73 82 87 63 56 
58 56 69 72 80 81 79 60 59 
64 57 65 72 77 84 85 63 56 
56 53 52 58 50 66 56 58 57 
65 60 65 65 65 60 60 57 60 
54 62 57 63 63 61 70 61 71 
72 67 63 68 68 61 74 66 62 
62 65 71 69 66 71 74 76 72 
74 69 65 70 71 56 44 45 62 
65 60 72 67 82 68 81 66 65 
64 66 55 66 62 95 95 82 72 
92 89 88 84 73 73 63 75 80 
74 83 79 74 71 76 65 76 65 
70 69 71 64 69 70 57 75 76 
80 81 84 63 69 64 60 53 49 
54 49 51 55 51 71 66 65 65 
61 67 60 60 70 68 73 73 69 
74 69 75 55 51 54 58 62 65 
68 67 63 56 65 74 66 70 54 
54 50 49 85 84 81 79 81 63 
52 52 58 57 59 62 63 61 61 
66 73 67 74 78 71 76 67 73 
67 65 72 77 75 78 86 88 81 
80 81 56 58 54 55 55 61 56 
55 60 60 59 61 68 62 60 66 
66 68 69 66 71 79 75 78 89 
89 95 111 108 105 114 105 94 86 
89 77 70 85 64 70 85 67 66 
66 73 68 73 68 65 62 83 105 
58 114 77 110 126 120 119 120 112 
111 116 111 110 89 95 89 78 75 
86 89 87 82 85 86 57 58 62 
67 96 95 93 65 65 88 92 87 
67 56 53 52 53 61 63 52 50 
50 58 57 54 59 62 56 62 64 
60 66 62 57 57 55 70 62 75 
71 64 61 67 70 73 74 74 77 
77 72 70 73 72 76 63 61 76 
71 77 76 75 60 62 67 73 53 
51 55 59 68 63 66 64 67 69 
72 69 63 84 72 80 74 67 70 
79 67 69 69 69 69 71 69 65 
70 72 73 72 76 85 84 84 76 
82 73 72 66 69 70 80 74 71 
68 67 65 54 55 64 74 74 79 
73 77 78 75 72 62 62 63 51 
54 58 66 76 72 66 64 69 69 
75 80 51 61 72 58 74 64 66 
61 64 47 49 44 57 51 83 76 
68 63 60 58 69 56 59 49 51 
49 66 76 72 62 66 66 70 67 
82 75 78 83 82 83 75 75 76 
78 78 76 80 76 75 75 69 63 
70 54 62 78 58 78 60 56 58 
62 62 63 59 60 76 78 90 87 
87 83 103 111 103 116 106 116 115 
100 88 92 90 93 94 93 93 69 
83 62 63 68 58 97 63 97 109 
78 129 119 126 121 119 111 121 108 
110 108 111 112 112 98 106 86 77 
81 81 81 82 79 85 77 77 59 
66 58 88 77 62 67 62 65 67 
62 88 63 63 88 65 66 62 58 
48 55 48 53 47 56 57 59 54 
76 72 57 62 68 60 55 55 62 
58 60 54 57 65 63 66 67 70 
76 77 75 76 77 78 76 76 66 
70 62 69 57 72 75 76 69 68 
64 63 75 77 66 59 60 60 48 
70 71 75 66 69 67 62 61 62 
59 59 84 76 62 58 64 65 70 
94 88 84 76 89 70 54 67 62 
56 60 90 82 62 56 62 59 60 
58 65 78 82 80 80 61 65 77 
82 70 91 76 81 85 89 91 68 
64 61 68 73 85 79 71 60 60 
65 62 66 77 71 84 85 89 56 
64 57 69 65 49 51 50 55 60 
67 61 57 58 56 53 49 49 66 
70 73 70 74 76 67 71 80 76 
75 87 90 85 78 77 77 85 72 
77 70 70 65 59 63 69 59 60 
72 76 59 86 70 62 59 67 67 
62 68 64 58 76 65 84 84 88 
94 111 103 93 112 112 116 115 118 
118 112 92 85 86 84 85 76 66 
61 77 110 112 127 106 121 119 110 
101 105 108 113 110 109 105 119 119 
81 107 81 69 75 75 67 60 70 
72 62 69 70 70 83 70 84 80 
81 81 80 60 59 58 59 55 61 
52 46 47 52 52 50 47 55 59 
59 57 58 57 55 62 72 63 67 
78 76 81 81 76 70 84 73 63 
58 55 59 70 76 74 79 81 76 
61 57 56 60 59 61 62 63 62 
77 77 77 64 68 57 52 52 47 
52 56 52 67 69 78 66 53 67 
68 48 89 97 83 76 85 86 67 
76 68 63 65 60 71 64 69 69 
60 57 52 46 54 46 40 47 50 
47 56 47 47 89 94 98 99 101 
95 55 60 53 59 59 59 63 68 
63 64 59 58 62 58 55 54 86 
87 80 91 51 51 53 53 58 58 
57 87 92 89 60 61 61 70 70 
81 80 92 95 96 90 91 90 79 
68 78 73 82 91 89 91 96 81 
63 75 91 54 52 49 53 51 51 
51 46 47 48 74 73 78 76 78 
83 85 89 98 94 98 87 80 71 
68 65 63 63 54 59 55 59 58 
58 57 58 55 49 48 48 52 94 
86 92 73 82 77 95 75 71 64 
76 90 86 80 85 76 64 73 72 
62 78 77 86 64 86 86 88 94 
101 102 90 111 114 109 109 111 114 
109 105 99 86 87 87 92 80 70 
70 79 64 73 85 115 97 97 114 
107 100 87 96 97 98 96 101 101 
104 108 118 112 119 101 115 101 122 
109 85 88 67 54 58 51 53 52 
59 64 57 67 66 66 71 65 50 
69 69 84 80 64 63 78 64 63 
62 61 61 61 56 53 52 49 54 
55 58 54 55 56 60 63 63 63 
59 63 87 87 87 81 70 77 73 
76 74 85 97 85 78 94 84 62 
86 86 69 64 101 105 105 91 107 
99 82 67 66 62 66 69 73 73 
83 75 82 63 74 61 66 67 70 
65 71 59 56 54 43 94 102 100 
43 40 62 49 54 49 53 53 48 
48 50 55 56 59 96 98 103 52 
52 59 56 60 95 65 58 53 57 
54 55 62 59 67 70 96 103 105 
94 96 70 80 86 83 86 102 102 
88 89 85 95 95 89 81 86 92 
97 78 86 101 100 100 89 96 56 
56 56 50 51 62 60 46 52 48 
57 85 82 88 88 92 98 92 98 
102 102 98 91 87 75 71 68 64 
59 61 58 51 54 53 53 57 57 
54 56 56 60 62 60 56 45 51 
47 50 53 53 50 48 86 77 93 
88 71 85 88 92 92 90 88 83 
93 67 71 78 78 86 88 86 87 
100 108 104 101 102 106 100 91 82 
88 78 79 73 72 76 73 88 108 
97 97 92 93 99 85 103 99 107 
109 104 108 113 116 119 58 61 58 
68 60 122 123 120 120 77 95 65 
63 56 65 69 59 57 64 96 55 
72 68 69 68 50 56 63 69 68 
65 70 77 66 68 65 81 86 77 
78 66 64 65 60 54 56 53 54 
54 56 60 59 58 57 61 59 78 
78 73 74 76 85 79 77 88 76 
81 87 96 96 87 106 104 107 106 
110 107 66 81 65 71 74 106 105 
93 81 85 85 73 74 68 64 62 
72 72 72 72 77 76 70 70 59 
59 74 100 66 74 62 54 55 55 
48 48 101 104 55 59 57 64 74 
64 78 105 109 70 57 54 56 58 
63 63 68 72 74 75 105 112 102 
113 118 119 74 79 84 85 85 91 
99 111 111 106 114 116 117 100 95 
101 99 92 104 99 107 101 104 107 
55 54 55 63 61 65 56 65 85 
90 87 97 103 107 91 97 81 86 
78 71 64 58 59 52 50 50 48 
50 49 50 54 80 88 88 84 80 
79 84 78 54 51 59 65 59 60 
66 52 47 47 50 87 89 89 91 
87 93 84 79 74 83 89 81 90 
80 96 102 87 78 99 85 95 86 
94 94 67 79 66 76 68 76 76 
85 92 75 89 85 94 83 92 101 
104 112 105 109 114 72 68 71 117 
114 114 108 76 119 75 68 78 117 
114 83 79 73 107 117 66 98 85 
76 66 76 63 67 74 63 70 70 
72 77 63 62 73 80 72 71 82 
80 65 69 77 70 68 62 68 60 
63 69 67 70 56 56 58 65 71 
62 64 62 69 67 77 72 65 75 
75 74 84 77 100 100 83 76 77 
100 105 107 112 112 109 108 108 112 
93 97 70 67 68 68 67 74 78 
80 76 74 70 80 72 72 79 80 
83 76 79 83 72 108 109 109 64 
68 74 72 78 64 70 103 103 97 
99 64 63 63 53 67 61 62 64 
64 103 108 70 78 85 87 87 70 
80 112 112 113 122 107 110 85 81 
85 85 68 74 74 87 74 80 122 
122 119 81 79 85 86 90 89 95 
100 92 97 104 104 110 109 113 105 
105 110 104 104 63 63 61 60 57 
52 51 54 74 88 95 89 100 97 
101 90 86 81 76 66 75 63 71 
82 67 59 50 60 64 74 74 85 
83 79 83 83 88 50 51 51 57 
67 67 58 65 53 50 50 48 48 
94 88 85 98 84 88 84 88 85 
83 87 78 80 79 77 74 89 87 
88 81 88 81 86 83 77 84 79 
77 74 80 85 92 83 73 84 80 
93 92 95 87 70 83 73 65 65 
61 68 61 64 59 64 77 69 70 
77 77 75 80 99 86 59 54 56 
106 116 89 102 119 116 68 72 78 
71 78 119 112 118 108 106 111 81 
80 106 103 98 98 73 82 86 85 
73 81 70 71 76 86 86 72 74 
75 75 73 85 87 71 69 73 76 
74 80 77 73 70 78 69 66 78 
79 82 63 61 60 66 76 76 59 
60 69 71 63 61 72 72 69 74 
74 79 73 70 77 74 74 71 71 
96 100 100 80 109 106 107 111 113 
111 109 109 107 104 95 88 82 95 
77 69 60 65 67 70 78 80 74 
80 70 78 88 90 87 84 82 82 
78 104 76 73 79 81 98 76 72 
72 69 69 97 71 70 67 78 72 
84 104 96 87 87 85 86 90 90 
85 91 88 122 123 118 112 116 108 
115 88 94 89 92 115 116 118 122 
117 115 89 91 94 90 90 90 92 
93 100 109 106 113 109 105 105 105 
108 105 110 65 62 59 56 62 64 
68 66 63 59 79 81 72 87 87 
93 89 95 88 86 82 85 83 83 
81 76 84 59 50 54 69 78 77 
85 79 77 84 81 79 79 53 53 
49 50 54 50 63 63 63 57 60 
61 57 60 60 53 51 51 70 88 
98 96 80 95 98 77 77 71 81 
78 76 86 82 81 88 83 81 77 
74 75 77 78 76 76 73 79 78 
74 74 95 84 96 66 76 88 62 
71 58 60 63 69 63 64 60 64 
65 63 61 61 61 71 70 70 68 
73 57 59 75 75 81 56 60 59 
103 60 66 119 118 76 80 108 114 
79 76 102 98 92 83 90 82 82 
85 83 84 73 78 92 89 71 73 
85 74 77 89 89 83 77 77 76 
80 66 60 77 85 74 79 76 61 
69 75 73 69 73 64 79 74 65 
73 74 78 77 89 89 78 83 74 
66 69 62 100 95 88 89 95 101 
93 93 91 100 105 105 86 82 91 
69 73 68 60 66 68 62 62 61 
67 74 85 82 91 91 86 83 84 
83 84 102 103 105 81 78 78 80 
82 81 79 78 104 98 72 74 72 
91 96 72 68 72 74 72 82 88 
108 91 102 88 81 79 90 110 123 
108 85 85 91 91 94 93 96 111 
111 116 118 114 120 93 90 87 89 
91 92 105 107 108 115 112 98 101 
105 111 109 107 107 104 53 57 57 
54 54 65 66 54 54 53 53 48 
46 74 69 78 78 74 90 90 80 
80 83 93 84 80 80 90 88 86 
89 85 85 86 86 63 71 85 74 
58 74 78 81 84 88 56 62 56 
58 55 62 63 53 58 52 51 56 
67 93 99 77 84 81 84 92 83 
88 83 102 102 75 70 69 83 85 
77 80 72 71 79 77 75 76 74 
78 72 96 96 100 109 100 102 99 
87 69 72 76 68 65 68 73 86 
84 74 91 63 59 63 59 76 99 
89 82 93 62 85 62 107 93 104 
107 103 61 66 61 66 122 122 64 
126 66 124 114 73 110 110 114 94 
70 70 85 78 78 82 85 83 83 
86 83 76 76 83 93 94 99 94 
71 70 72 74 88 86 86 70 72 
71 77 81 89 78 85 83 73 73 
61 77 83 61 60 62 69 74 72 
71 68 72 66 64 66 88 79 80 
72 73 80 80 84 58 66 87 91 
81 75 67 81 62 89 89 84 97 
103 103 105 104 106 75 69 58 58 
53 56 49 45 53 48 63 49 62 
70 67 62 59 67 58 77 84 87 
76 86 86 86 82 78 80 73 82 
100 84 80 81 81 79 73 100 96 
72 72 74 74 87 87 76 76 68 
76 70 76 70 90 74 84 76 90 
85 92 87 79 90 80 81 91 90 
91 89 106 96 85 93 72 91 95 
97 99 88 88 118 123 127 128 120 
111 107 101 88 95 95 99 101 99 
97 97 99 105 92 102 100 104 106 
106 110 108 111 110 110 110 110 110 
116 118 63 67 65 58 58 54 54 
54 57 54 46 49 47 47 49 67 
90 78 78 87 80 75 75 81 85 
81 84 80 70 75 68 61 70 64 
69 81 82 63 73 70 61 61 62 
55 57 66 72 72 63 56 57 54 
54 60 64 81 80 79 88 87 88 
88 82 97 100 87 92 100 69 81 
83 90 94 95 71 78 75 70 69 
75 69 73 74 72 73 74 76 75 
73 72 92 81 102 60 59 70 66 
70 64 87 104 102 59 57 56 82 
77 83 90 66 66 101 84 109 95 
109 109 111 101 91 118 119 58 111 
58 63 58 99 67 110 70 61 61 
130 128 133 116 113 105 105 66 62 
102 64 89 70 64 80 78 75 65 
80 87 84 84 82 82 81 86 82 
94 78 98 98 81 67 70 89 66 
74 66 76 69 78 74 73 77 63 
63 66 74 67 72 72 60 61 65 
67 65 75 66 62 75 74 85 88 
74 67 82 84 64 69 61 68 91 
91 91 91 88 88 87 95 92 56 
65 59 57 65 55 49 52 48 58 
57 49 50 53 50 63 74 72 87 
68 73 73 79 79 77 98 102 75 
79 74 76 103 93 98 73 73 75 
70 98 65 74 80 81 78 78 71 
81 81 90 57 89 96 93 89 84 
84 70 73 64 55 56 81 87 85 
87 90 72 66 62 76 74 59 96 
98 97 89 86 79 87 75 89 95 
93 92 97 99 115 115 121 125 115 
125 118 119 121 116 107 110 107 108 
103 104 99 102 86 96 94 100 94 
89 85 93 101 104 108 109 105 110 
106 109 111 100 95 95 96 95 65 
62 52 49 56 46 45 47 46 54 
50 63 56 63 61 54 57 66 75 
65 89 78 73 70 73 75 80 69 
79 76 76 72 54 49 59 86 87 
86 72 78 66 73 63 61 70 71 
73 77 74 61 59 66 60 55 60 
55 54 82 87 82 74 79 81 64 
68 64 99 95 97 89 80 86 79 
86 96 97 94 97 95 97 92 92 
78 83 66 76 76 72 76 74 76 
74 74 66 67 65 65 64 71 74 
73 67 72 65 70 68 69 67 89 
94 94 102 111 114 108 99 56 57 
86 84 107 63 60 51 116 119 105 
90 59 118 119 58 60 111 114 60 
67 114 121 108 121 129 118 127 121 
70 66 70 62 132 118 98 95 93 
63 88 89 84 64 65 67 84 77 
89 95 78 95 89 88 76 94 72 
66 95 66 72 86 97 77 62 64 
70 70 66 69 62 65 65 64 76 
76 73 64 64 64 60 64 69 75 
64 59 63 78 75 66 74 72 63 
69 64 72 76 77 67 72 83 80 
90 84 88 78 82 80 51 76 54 
75 86 74 53 44 70 47 85 67 
66 81 85 91 68 52 50 47 52 
78 78 70 59 91 94 48 46 62 
58 72 59 57 89 88 89 65 73 
52 52 52 52 54 91 52 67 55 
47 49 48 56 53 56 58 93 94 
91 63 60 65 70 65 68 73 68 
69 63 65 87 90 77 74 73 70 
70 71 76 87 64 65 60 82 83 
84 60 60 55 61 84 98 97 93 
60 57 93 87 83 90 65 82 71 
70 86 88 89 89 95 88 90 94 
93 93 90 101 86 102 97 93 100 
100 92 87 90 87 91 91 97 101 
95 95 100 101 101 102 109 103 112 
109 114 109 106 109 106 113 111 109 
107 112 108 110 102 101 107 107 98 
106 107 102 85 80 108 100 111 112 
108 112 109 114 95 106 109 92 96 
96 98 50 46 50 47 55 55 55 
54 54 52 55 52 53 54 47 48 
50 59 57 75 74 84 65 66 68 
59 59 69 70 70 62 63 75 63 
53 53 52 51 51 56 75 82 81 
71 75 77 78 76 79 70 71 80 
79 80 83 66 70 66 53 48 59 
71 73 76 82 68 92 82 83 79 
81 78 73 73 86 84 92 92 88 
76 67 71 65 90 68 71 76 76 
85 90 80 75 66 73 83 81 77 
76 71 68 59 60 64 73 64 76 
70 70 69 104 64 78 61 73 112 
114 63 98 88 78 58 80 102 85 
92 58 120 116 64 121 119 117 115 
114 64 64 118 120 117 119 125 67 
63 127 130 127 63 123 62 100 89 
65 63 62 65 87 85 64 66 94 
91 66 91 94 76 72 69 68 74 
64 69 93 79 68 91 64 73 84 
58 60 84 74 61 61 70 67 64 
60 58 68 60 60 66 70 59 80 
66 58 60 60 68 66 70 69 74 
86 83 81 82 73 76 89 66 80 
79 69 59 86 86 76 70 63 65 
59 65 81 88 91 85 88 79 61 
69 91 92 54 51 51 83 85 41 
87 39 47 38 49 45 53 62 60 
63 62 91 88 88 61 62 62 63 
64 61 85 81 60 54 59 67 70 
75 70 77 75 73 73 84 79 71 
63 71 64 54 55 50 52 52 63 
51 86 82 86 87 86 53 86 91 
92 96 96 91 61 61 95 93 86 
86 85 86 87 61 88 87 76 87 
88 84 82 82 78 82 80 81 94 
100 97 84 99 90 98 101 102 98 
101 101 109 108 107 100 101 97 91 
91 93 105 102 107 110 101 110 96 