# vtk DataFile Version 4.2
vtk output
ASCII
DATASET POLYDATA
POINTS 13496 float
213.791 184.426 30.9196 213.567 183.915 31.1121 213.419 183.91 31.2577 
213.511 183.775 31.1696 214.216 185.427 30.5296 213.894 184.664 30.8285 
213.688 185.352 31.0444 213.755 186.076 31.0809 214.356 186.162 30.5071 
214.375 185.751 30.4227 214.111 186.826 31.0846 214.612 186.104 30.3628 
214.835 186.792 30.4558 214.929 186.517 30.3276 215.624 187.265 30.3693 
215.506 187.139 30.3615 215.489 187.246 30.4134 214.795 187.441 31.0031 
215.741 187.954 30.8603 215.086 186.7 30.3259 216.015 187.599 30.4601 
216.453 187.98 30.5555 216.48 188.049 30.5965 216.657 188.149 30.6066 
217.079 188.486 30.7222 216.569 188.646 31.1057 216.513 188.029 30.571 
217.186 188.578 30.7456 217.157 189.144 31.2248 217.695 188.97 30.8964 
212.479 181.242 32.1938 212.247 180.611 32.4717 212.029 181.003 32.5195 
212.943 182.393 31.7245 212.814 182.094 31.8387 212.432 182.049 32.243 
212.769 182.683 31.9337 212.596 181.485 32.1119 213.166 182.953 31.493 
212.775 183.475 31.9075 212.107 182.856 32.3599 213.215 183.084 31.4361 
213.33 183.36 31.3274 212.836 184.419 31.8383 212.346 183.922 32.2514 
213.214 184.899 31.4386 213.871 184.615 30.8459 212.533 185.39 32.1421 
212.242 184.672 32.3285 213.033 185.814 31.6637 213.299 186.728 31.5547 
212.634 186.591 32.1451 212.044 186.04 32.3844 213.899 187.528 31.5175 
213.27 187.49 32.0447 212.628 187.483 32.3845 213.947 188.213 32.049 
213.221 188.353 32.3976 214.483 188.078 31.4869 215.127 188.184 31.2313 
213.95 188.949 32.3963 214.804 188.751 31.8689 214.715 189.381 32.383 
215.702 188.702 31.3649 216.291 189.312 31.6376 215.478 189.234 31.9902 
217.066 189.739 31.6462 215.17 190.123 32.4605 215.975 189.862 32.253 
216.329 190.496 32.4412 216.915 190.21 32.1873 217.838 189.088 30.9324 
217.91 189.636 31.3174 218.219 189.379 31.0463 218.639 189.62 31.2334 
218.819 189.734 31.3054 218.469 190.012 31.5569 217.708 190.275 31.949 
217.648 190.956 32.38 218.381 191.286 32.453 218.535 190.57 32.1067 
219.073 189.86 31.434 219.248 190.291 31.8501 219.387 191.025 32.3897 
219.454 190.062 31.6157 219.922 190.436 31.9705 220.058 190.391 31.8984 
219.876 190.283 31.8199 220.726 190.883 32.1119 220.433 190.666 32.0188 
220.375 190.993 32.2948 221.108 191.178 32.2243 221.065 191.378 32.3865 
221.326 191.314 32.3124 211.672 178.31 33.7222 211.651 177.831 34.0697 
211.45 177.902 34.1693 211.75 179.037 33.2356 211.328 179.111 33.5881 
211.833 179.351 33.0685 211.619 179.63 33.175 211.696 178.538 33.5688 
211.642 180.401 32.957 211.054 180.357 33.5106 210.782 179.716 33.7793 
211.925 179.656 32.9164 212.024 179.992 32.7477 212.163 180.338 32.6057 
211.335 181.188 32.9225 210.691 181.118 33.5272 210.807 181.836 33.1541 
211.727 181.833 32.5621 212.535 181.388 32.1323 210.026 183.085 33.4703 
210.585 182.653 32.9917 210.099 182.175 33.5937 211.313 182.408 32.6176 
210.475 183.531 33.0045 211.121 183.121 32.6103 209.481 182.809 33.9651 
210.96 183.963 32.631 210.356 184.371 33.1058 209.841 183.94 33.6235 
211.747 183.593 32.4731 209.796 184.805 33.6736 211.562 184.431 32.4854 
210.902 184.851 32.6579 210.246 185.325 33.2127 210.886 185.573 32.6607 
210.46 186.312 32.9714 211.174 186.253 32.5532 211.718 185.331 32.4726 
209.483 185.449 33.9165 209.933 186.136 33.5471 210.162 187.128 33.3264 
211.784 186.765 32.4639 210.928 187.166 32.6332 210.504 187.807 33.032 
209.951 188.046 33.6255 211.806 187.496 32.4923 211.258 188.152 32.6285 
212.365 188.282 32.5028 210.681 188.54 33.2248 210.892 189.366 33.6298 
211.304 189.057 33.08 211.805 188.776 32.6193 212.503 189.166 32.5785 
213.228 189.438 32.5237 213.965 189.86 32.5068 211.82 189.657 33.1697 
211.218 190.308 33.9355 212.553 190.098 32.9365 212.022 190.346 33.5155 
213.191 190.324 32.6885 213.677 190.856 32.7516 214.387 190.504 32.5245 
215.717 190.946 32.5266 216.825 191.1 32.4776 212.939 190.982 33.3338 
212.045 190.986 33.8193 213.635 191.726 33.5015 214.191 191.449 32.9342 
214.901 191.156 32.5836 217.589 191.835 32.539 214.365 192.139 33.5315 
214.94 191.945 33.0973 215.143 192.681 33.6549 215.538 191.846 32.8398 
216.208 191.704 32.6739 216.903 191.994 32.6609 219.006 191.825 32.5508 
219.731 192.404 32.7702 219.924 191.749 32.5165 220.779 192.037 32.5751 
221.804 191.697 32.4431 221.776 191.997 32.6076 222.066 191.843 32.563 
222.771 192.159 32.9436 222.474 192.008 32.7973 222.439 192.292 33.0093 
215.95 192.488 33.3801 216.684 192.537 33.1125 218.244 192.304 32.6896 
218.975 192.668 32.9715 221.376 192.655 33.0134 223.5 192.443 33.3706 
223.127 192.284 33.1623 222.968 192.654 33.5233 216.75 193.074 33.5712 
217.587 192.706 33.0696 216.743 193.699 34.0244 217.552 193.359 33.684 
218.321 193.055 33.4028 219.019 193.33 33.6454 219.71 193.032 33.3787 
220.495 192.665 32.9956 220.521 193.242 33.5796 221.416 193.298 33.6629 
222.114 192.923 33.4858 221.954 193.824 34.1438 211.796 177.393 34.5327 
211.846 177.254 34.6835 211.147 177.677 34.8452 211.867 177.203 34.741 
211.359 177.165 35.4279 211.936 177.084 34.8927 211.962 176.841 35.3403 
212.126 176.781 35.2924 210.748 178.273 34.5229 210.37 178.099 35.1446 
209.769 178.226 35.5327 210.215 178.726 34.7135 211.679 178.469 33.6066 
210.958 178.632 34.0188 210.441 179.205 34.1865 209.69 180.609 34.3887 
209.968 179.765 34.4122 209.337 180.047 34.8437 209.712 179.074 34.9529 
210.303 180.425 33.9176 209.99 181.284 33.9306 208.963 180.73 34.8839 
209.263 181.376 34.5714 209.535 181.926 34.0773 209.104 182.328 34.3646 
208.673 181.975 34.8035 208.803 182.898 34.6457 208.088 183.205 34.9451 
208.084 182.347 34.9435 208.725 183.722 34.6895 209.289 183.593 34.1067 
209.172 184.538 34.2123 208.507 184.494 34.8175 208.321 185.276 34.8969 
208.918 185.483 34.524 209.306 186.216 34.0954 208.806 186.319 34.6502 
208.984 187.098 34.4893 208.184 186.149 34.956 209.603 186.873 33.834 
209.419 187.537 34.0118 208.641 187.835 34.7644 209.307 188.293 34.1764 
208.786 188.644 34.7143 210.081 188.857 33.77 209.615 189.157 34.314 
209.293 189.628 34.8121 209.926 190.019 34.7127 210.371 189.762 34.1268 
210.535 190.55 34.6014 210.622 191.219 34.9006 211.391 191.152 34.4629 
212.135 191.628 34.1956 211.869 192.127 34.7747 212.878 191.709 33.7749 
211.138 191.85 34.9155 212.076 193.001 34.9428 212.588 192.302 34.4254 
213.323 192.45 34.0724 214.15 192.713 33.9334 213.67 193.045 34.4919 
212.804 192.964 34.756 214.536 193.244 34.2365 215.258 193.475 34.1685 
215.921 193.26 33.8072 222.694 193.407 33.8684 223.747 192.585 33.4808 
223.609 193.066 33.844 224.44 192.905 33.8481 224.191 192.805 33.7053 
224.449 193.415 34.3357 213.302 193.479 34.8722 214.077 193.738 34.8214 
214.759 193.939 34.7608 215.343 194.272 34.7851 216.034 193.936 34.3195 
218.405 193.736 34.006 219.606 193.71 33.9817 220.313 193.885 34.1745 
221.036 193.792 34.0993 221.106 194.337 34.6271 222.928 193.962 34.3816 
223.702 193.642 34.387 223.987 194.181 34.8511 224.878 193.134 34.0607 
225.007 193.203 34.1218 224.897 193.87 34.7475 225.759 193.579 34.4988 
225.519 193.455 34.3808 225.787 193.692 34.6152 225.863 193.632 34.5501 
226.259 193.85 34.7337 216.006 194.641 34.8706 216.828 194.38 34.6645 
217.484 193.902 34.2177 217.461 194.971 34.9345 217.778 194.326 34.6287 
218.598 194.286 34.5825 219.15 194.859 34.9368 219.319 194.197 34.5112 
220.072 194.433 34.7286 222.109 194.378 34.6628 222.565 194.941 34.9578 
223.245 194.523 34.8677 221.598 195.01 34.9488 212.507 176.184 36.0847 
212.523 176.165 36.1136 212.495 176.185 36.0958 212.234 176.608 35.52 
211.823 176.586 35.9766 212.497 176.2 36.0636 210.378 176.972 36.6941 
209.655 177.369 36.6684 210.16 177.588 36.0089 210.751 177.581 35.522 
210.923 177.102 36.0642 211.304 176.623 36.4625 209.364 177.911 36.2387 
208.654 178.504 36.3122 209.186 178.66 35.7307 208.59 179.312 35.8246 
209.112 179.412 35.2839 208.551 180.059 35.204 207.913 179.904 35.6416 
207.995 179.167 36.2048 207.289 179.538 36.2377 207.102 180.154 35.8391 
206.463 179.629 36.4382 206.415 180.331 36.0671 206.149 181.074 35.6154 
206.8 180.811 35.4054 207.464 180.626 35.2847 208.129 180.686 35.0802 
205.786 180.511 36.2337 205.513 181.276 35.9615 206.82 181.437 35.0937 
208.431 181.365 34.957 204.886 181.401 36.2388 204.515 182.25 35.993 
205.185 182.012 35.6119 205.944 181.711 35.3064 206.534 182.186 35.0423 
207.629 181.383 35.0332 207.331 182.128 35.0071 204.705 182.818 35.4251 
203.999 182.999 35.9691 203.614 182.525 36.3529 204.136 181.8 36.414 
205.64 182.489 35.1333 206.468 182.934 35.0106 207.342 182.94 35.0021 
205.342 183.231 35.0619 204.684 183.703 35.1532 206.015 183.424 35.0077 
204.137 183.679 35.6004 205.252 184.22 35.0178 206.044 184.196 35.0033 
206.916 183.638 35.0025 206.832 184.394 35.0025 207.763 183.915 34.9831 
204.569 184.799 35.0737 204.054 184.433 35.4492 203.479 183.775 36.1263 
203.369 184.62 35.995 207.595 184.741 34.9931 203.729 185.174 35.4763 
203.863 185.977 35.2609 204.572 185.591 35.0337 205.487 185.027 35.0059 
206.221 185.2 35.0025 206.917 185.286 35.0025 207.611 185.63 34.9966 
203.116 185.535 35.9893 205.362 185.843 35.0032 206.065 186.167 35.0025 
206.793 186.075 35.0025 207.391 186.534 34.9998 202.646 186.257 36.411 
203.239 186.407 35.8615 204.637 186.568 35.0244 206.415 186.972 35.0025 
208.293 186.933 34.9318 203.721 186.768 35.3381 205.463 186.789 35.0031 
207.099 187.347 35.0025 206.643 188.021 35.0025 204.143 187.323 35.1035 
203.544 187.667 35.5086 203.025 187.203 36.0563 204.188 188.117 35.0759 
204.928 187.495 35.0036 205.768 187.618 35.0025 207.825 187.425 34.9909 
204.971 188.39 35.0025 205.818 188.428 35.0025 207.81 188.174 34.9874 
202.985 188.054 36.098 203.477 188.502 35.603 203.219 189.194 35.8896 
204.06 188.878 35.1228 205.48 189.124 35.0025 206.557 188.865 35.0025 
207.296 188.687 35.0023 208.054 189.045 34.9876 203.508 190.488 35.7313 
203.723 189.625 35.3452 202.964 189.898 36.1492 204.582 189.458 35.0253 
206.185 189.518 35.0025 205.303 189.929 35.0036 204.052 190.291 35.1774 
[...]
POINT_DATA 13496
FIELD FieldData 3
scalars 1 13496 double
64.743952074 66.594443504 70 69.462099161 65.507552199 63.089103794 64 59 62 
64.316377099 58 64.036546097 59 62.088612055 59.316334947 58.435439101 58 61 
63 59.650218569 64.174691394 63.196445377 63 61.26251853 56.543879362 59 63.291196776 
56 56 53.555117039 94.60279083 77.855808773 88 90.43169602 89.860273563 91 
92 95.697124176 79.503770592 88 91 77.487601835 73.744790506 75 82 
75 63.732141413 77 75 66 57 59 67 61 
60 57 65 62 64 62 63 62 63 
60 65 63 59 72 65 58 58 54.562604329 
60 60 60.6853261 60.694642887 60 61 61 65 61 
59.175039199 56 59 57.744810968 56 56.932148941 56.916124233 54.422307869 56.613712541 
54 54.309159998 54 53.669306064 50.374426857 38.71511899 40 61.864400168 73 
60.650017825 67 56.450988693 81 81 77 66.111566513 71.806207076 73.601296528 
86 86 92 91 96.29954456 84 90 89 93 
84 90 77 90 91 85 84 91 75 
89 93 88 91 67 74 90 93 88 
67 72 72 69 61 58 61 59 47 
52 52 59 60 67 55 53 58 56 
58 63 73 74 67 59 59 59 69 
73 74 68 68 69 74 77 77 57 
58 56 56 52.369641704 52 53.163045518 56.801899229 55.589752305 56 
70 70 64 58 51 59.728161576 57.06506557 56 62 
71 55 57 61 58 58 55 58 58 
55 69 37.803645143 37.396230159 41 38.480988477 52 39.355826636 44 
44.278921617 54 54 52 57 54.718662116 62 63 73 
65 73 52 82 84 71 83 82 75 
75 71 74 77 78 83 90 87 81 
80 87 77 68 76 88 76 65 65 
65 54 59 64 56 52 57 57 55 
59 57 60 52 59 59 62 65 68 
60 70 67 66 59 62 62 60.54021053 62 
57 64 67 68 68 62 57 57 57 
71 71 63 59 53 55.538318623 53.144931319 46 54.089075731 
55 55 56.047774487 65.357769988 57 53 55 52 56 
56 55 58 62 69 70 58 73 50.980694322 
50.856893799 51 51.957798707 61 50.791715036 45 45 49 54 
61 61 43 42 45 46 56 62 55 
45 55 63 57 60 59 64 70 77 
65 59 67 81 58 51 61 58 65 
70 70 64 60 55 66 61 68 70 
64 56 68 60 66 78 80 85 74 
51 51 56 53 85 52 53 53 59 
69 79 78 52 63 72 73 74 56 
54 54 69 76 57 63 69 57 55 
54 57 55 58 66 63 58 59 57 
53 55 52 54 59 53 56 56 53 
56 55 60 60 59 55 53 56 59 
64 58 60 61 56 61 57 53 54 
49 58 52 60 53 51 47 56 50 
55 57 53 54 56 50 51 52 53 
50 57 57 56 55 56 55 53 59 
61 59 59 55 57 58 58 61 63 
64 51 58 57 62 52 58 63 52 
58 51 67 67 55 49 66 70.77021012 71.405944069 
66 50 58 55 45 49 64 53 65 
67 68 62 65 59 54 58 52 73 
65 72 66 65 59 56 56 67.601798102 67.614610338 
69.969447052 72 67 73 74 62 68 57 65 
56 56 64 64 69 65 59 67.702532816 62.4669704 
57 57.278274186 63 55 50 51 50 56 62 
68 68 61 56 63 64 64 60 66 
53 53 60 47 59.185521587 68.461236833 67.473661211 69 53 
53 59 63 56 74 57 71 74 64 
61 60 52 52 52 51 47 46 56 
61.214040785 64.766590322 67 70 70 63 73 67 69 
63 67 62 64 60 68 59 59 63 
55 51 52 52 52 50 50 49 44 
61 61 64 63 63 63 65 70 73 
68 66 66 49.055342449 53.578194545 54 54 51.164337808 56 
47.566397645 47 59 50 59 44 46 53 48 
48 60 56 56 57 63 67 65 66 
72 73 73 70 68 60 51 48 56 
64 65 65 61 61 68 57 61 63 
64 59 54 55 60 57 58 59 56 
58 56 55 46 45 50 52 49 48 
53 49 45 48 50 52 49 50 53 
51 53 61 57 54 50 67.609283915 67 64.057121711 
54.260401019 57 53.910812146 53 53 56.678147363 58 53 51 
49 61.585672933 48 51 51 55 50 44 60 
60 62 62 62 57 49 49 44 50 
56 56 52 52 57 57 55 54 56 
51 52 48 49 45 48 51 50 45 
47 51 58 59 62 64 66 66 67 
74 72 72 72 71 75 72 63 65 
64 66 63 55 58 58 58 49 54 
60 63 63 62 58 62 64 72 73 
55.879996704 56.340187949 58 54 54 52 51 52 47.177213968 
60 61 53.835664496 54 57 66 55 65 56 
63 53 50 46 54 50 53 63 49 
58 61 64 50 56 58 66 68 63 
44 58 55 56 60 74 56 59 64 
72 63 54 49 45 47 46 44 61 
70 62 55 52 48 67 65 64 65 
58 60 56 56 60 60 58 52 59 
64 63 59 62 57 57 63 62 63 
68 67 54 51 59 46 42 42 54 
58 60 49 65 61 42 45 47 50 
60 57 51 47 40 41 54 50 44 
60 46 51 39 45 65 60 45 55 
45 50 55 47 42 39 43 47 55 
47 42 40 50 47 44 44 44 46 
49 43 48 46 42 47 48 49 45 
45 50 53 54 51 52 47 54 54 
52 49 55 53 54 50 46 56 55 
58.475876909 54 60.142997845 61.868238508 62.700806443 61 55 49 49 
51 55 55 53 50 65 63 58 50 
46 60 53 53 53 50 50 53 49 
64 53 52 52 49 56 62 55 48 
50 50 52 53 50 50 51 74 73 
75 70 56 72 55 57 66 54 53 
53 54 67 63 53 49 47 49 55 
59 58 59 55 58 56 55 63 73 
59 68 62 59 71 61 58 61 57.296375196 
55.92492046 71 62 69 61 58 75 75 72 
54 58 69 64 64 60 62 54 54 
50 54 61 63 67 64 65 48 44 
55 44 49 58 47 52 58 54 59 
42 51 50 46 47 43 50 52 53 
53 55 59 57 53 57 59 57 54 
59 49 52 62 59 60 54 53 59 
51 47 57 61 72 73 73 78 75 
76 60 68 68 57 62 59 59 54 
45 52 57 44 51 52.253000868 58.155566927 59 59 
45.644085515 51.908353137 46 62 56 62 72 60.989657715 61 
52.039377561 60 81 86 63 59 60 58 49 
48 48 44 67 60 52 48 50 48 
48 60 62 55 58 55 63 67 78 
60 66 52 64 54 56 58 58 60 
58 54 57 57 56 62 53 49 51 
54 54 55 53 53 73 70 69 56 
54 53 65 68 72 60 66 46 47 
61 57 61 57 53 61 58 57 55 
60 65 74 79 67 69 66 62 72 
58 52 53.568496491 52 54.134088282 55 55 52 60.938367473 
55 60.35127953 60 60 57 55 50 63 65 
62 63 47 49 48 44 44 44 51 
54 50 52 51 45 47 50 47 42 
44 53 46 59 55 54 53 60 58 
57 54 58 59 57 56 56 63 60 
68 73 75 69 64 74 69 80 75 
74 81 80 84 85 77 77 84 86 
85 78 90 85 80 89 96 89 80 
106 102 86 96 79 99 94 105 89 
80 74 82 71 87 79 62 62 59 
58 61 62 55 53 57 55 65 53 
53 59 60 69 52.017599152 56 49 39 41.024220997 
39 39.589273707 40 45 80 70 78 74 94 
59 60 55 55 54 56 78 57 56 
77 85 78 78 86 91 69 56 62 
58 68 71 56 58 50 54 60 58 
61 84 75 89 82 79 65 58 58 
57 58 54 67 73 82 69 61 54 
54 54 52 54 54 54 54 55 52 
54 43 70 62 54 72 74 72 78 
65 44 52 42 55 48 61 53 58 
62 56 56 56 58 66 68 67 61 
64 64 54 72 83 68 56 62.369803417 63.521726015 
69 64.890672028 71 68.117884037 79 62 56 50 56 
79 69 71 67 72 58 69 54 61 
59 60 62 58 58 51 50 55 52 
49 54 60 49 45 43 43 42 46 
48 50 45 41 46 44 61 49 57 
64 48 61 68 65 59 62 66 64 
65 58 62 69 64 63 70 74 75 
70 80 81 74 78 73 79 73 77 
84 78 72 76 95 90 96 102 104 
98 89 81 71 70 69 74 64 67 
71 56 59 59 65 69 69 60 60 
72 60 40 42.032932418 44 48 52 43.746185881 43.674939644 
52.045155626 44.871059038 52 44.203618728 68 71 47 67 69 
69 57 51 58 56 71 57 54 58 
53 75 65 53 60 56 60 59 76 
75 50 55 58 57 79 69 76 57 
50 57 60 83 65 57 60 66 59 
54 66 57 70 67 72 79 75 75 
70 63 61 56 56 52 51 55 55 
54 73 67 68 66 64 50 42 44 
49 47 43 49 52 53 63 61 61 
55 56 65 56 74 71 80 83 82 
83 50 55 57 52 52 52 49 49 
54 61 59 60 63 64 64 85 85 
67.759181993 64.959330004 71 67 52 77 77 72 72 
66 66 70 72 68 68 68 75 79 
79 55 61 55 62 52 54 49 48 
42 42 38 46 43 50 50 42 41 
54 45 42 42 65 68 68 68 65 
61 64 66 61 66 65 67 73 73 
81 77 88 80 87 75 72 72 73 
77 75 84 81 83 95 87 99 98 
79 88 94 93 73 88 57 64 68 
68 67 71 58 61 66 62 59 60 
67 62 81 67 65 73 71 73 61 
61 75 70 80 76 76 71 74 71 
58 60 60 67 82 75 88 73 74 
68 69 70 75 53 53 86 81 78 
71 74 75 67 62 61 58 64 61 
61 81 69 71 61 64 59 62 55 
59 48 75 73 52.022933004 52.561556002 53 53 89 
86 64 64 62 68 69 68 59 59 
54 52 68 81 71 66 49 71 73 
73 74 68 55 56 55 57 71 68 
68 62 64 69 59 54 61 69 53 
58 58 58 70 69 69 69 61 63 
68 68 63 62 56 68 72 51 53 
65 64 56 63 63 58 67 72 74 
73 67 67 61 56 64 72 77 74 
68 67 74 74 63 62 57 62 70 
76 62 65 55 64 69 70 70 66 
69 69 62 55 61 69 69 71 77 
70 74 72 72 59 49 51 54 74 
68 69 67 67 67 65 68 77 79 
76 75 72 80 69 80 52 50 51 
58 55 55 58 58 53 51 51 58 
58 77 78 79 57 51 51 51 47 
48 49 56 59 63 61 65 66 68 
74 72 80 50 53 58 58 61 59 
59 54 51 61 68 72 70 65.011703658 65.023212109 
63.631251776 69.241073921 89 96 90 95 80 65.022983664 63 
58 63 63 62 51 61 54 65 65 
63 66 67 71 70 70 69 68 68 
73 72 73 72 74 79 78 59 62 
60 53 55 58 54 48 37 43 37 
42 38 43 51 68 60 58 69 65 
70 68 68 67 62 62 73 66 61 
82 83 91 89 91 99 100 92 82 
82 83 87 88 87 92 76 85 85 
99 100 98 100 92 93 69 79 51 
57 51 64 58 61 75 62 83 56 
101 91 77 100 103 102 98 96 88 
79 87 83 53 52.37789263 51 53 50.39853226 49.651176968 
49 49.231244482 86 82 82 84 53 51 79 
69 75 64 59 57 61 59 60 56 
56 66 55 58 58 57 57 60 66 
68 61 69 68 65 62 64 50 62 
62 61 63 68 68 71 65 73 74 
70 68 61 51 48 49 68 61 63 
61 68 60 61 69 68 68 67 69 
68 59 48 64 74 75 72 75 68 
68 68 69 78 95 85 74 92 79 
74 80 74 76 78 69 65 66 65 
70 73 77 72 78 78 83 79 75 
78 67 72 51 52 59 58 76 76 
70 68 60 60 54 55 54 56 56 
55 62 66 61 58 63 58 53 54 
54 65 71 73 73 52 64 53 49 
60 64 68 66 62 63 63 57 61 
68 76 71.130784594 70 81 82 70 61.571870654 81 
51.308410911 91 95 77 59 62 60 65 51 
65 66 62 62 67 67 68 67 64 
70 69 69 74 74 74 75 90 79 
92 94 59 60 63 57 60 58 58 
54 58 50 60 55 51 41 46 61 
51 63 62 62 64 70 64 66 63 
72 72 80 67 88 93 98 96 97 
95 96 97 86 81 79 81 92 79 
79 91 89 80 74 80 63 62 71 
63 63 72 85 61 76 91 103 106 
87 83 83 87 73 80 69 72 72 
80 78 77 81 67 81 55 54 53.329005119 
56.793156162 54.492964525 57 57 74 59 74 69 55 
55 58 60 60 59 67 54 57 76 
73 76 63 52 50 58 51 54 56 
61 58 55 55 49 62 66 62 61 
65 67 61 64 60 61 63 60 60 
66 58 70 74 74 77 77 59 56 
54 62 72 72 70 73 68 69 62 
69 66 67 69 68 70 70 66 63 
61 74 74 75 73 78 68 65 67 
64 67 93 97 98 93 93 88 82 
75 76 66 66 64 66 69 69 73 
86 84 85 70 73 69 67 81 74 
71 75 66 64 69 63 60 53 51 
60 71 76 76 74 70 49 45 44 
52 50 60 59 57 56 57 57 57 
67 64 65 67 69 70 70 66 70 
70 65 65 69 83 86 68 68 50.957382667 
50.765560488 59.140335253 56 56 55.026572485 54 54 52.809331575 91 
89 91 88 90 58 55 56 52 53 
56 60 53 60 61 60 60 62 71 
71 67 64 72 65 73 77 80 87 
92 89 89 58 54 51 56 52 55 
60 59 65 63 60 69 62 69 73 
71 71 69 79 71 71 90 87 95 
110 110 94 94 88 81 74 77 64 
65 73 81 72 83 74 65 68 61 
93 89 113 112 120 122 97 106 116 
104 82 70 72 74 69 84 84 83 
75 80 55.988500268 55.979934713 56 82 81 87 55.554144556 
56.793844825 58 55.978510115 63 56 57.15956339 60 59 64 
65 63 56 56 53 52 58 50 66 
56 58 57 65 60 65 65 65 60 
60 57 60 54 62 63 63 61 70 
61 71 72 67 63 68 68 61 74 
66 62 62 65 71 69 66 71 74 
76 72 74 69 65 70 71 72 67 
82 68 81 66 65 64 66 95 95 
82 72 92 89 88 84 73 73 63 
75 80 74 83 79 74 71 76 65 
76 65 70 69 71 64 69 70 57 
75 76 80 81 84 63 69 64 60 
53 49 54 49 51 55 51 71 66 
65 65 61 67 60 60 70 68 73 
73 69 74 69 75 55 51 54 58 
62 65 68 67 63 65 74 66 70 
54 50 49 49.712743754 48.80420682 47 47.083542077 47 85 
84 81 79 81 63 52 52 58 57 
59 62 63 61 61 66 73 67 74 
78 71 76 67 73 67 65 72 77 
75 78 86 88 81 80 81 56 58 
54 55 55 61 56 55 60 60 59 
61 68 62 60 66 66 68 69 66 
71 79 75 78 89 89 95 111 108 
105 114 105 94 86 89 77 70 85 
64 70 85 67 66 66 73 68 73 
68 65 62 83 105 58 114 77 110 
126 120 119 120 112 111 116 111 110 
89 95 89 78 75 86 54.03274332 53.505318663 59 
89 87 81 86 57 58 55.824190974 53.013662941 62 
67 65 65 67 56 53 52 53 61 
63 52 50 50 58 57 54 59 62 
56 62 64 60 66 62 57 57 55 
70 62 75 71 64 61 67 70 73 
74 74 77 77 72 70 73 72 76 
61 60 76 71 77 76 75 60 62 
67 73 53 51 55 59 68 63 66 
64 67 69 72 63 84 72 80 74 
67 70 79 67 69 69 71 69 65 
70 72 73 72 76 85 84 84 76 
82 73 72 66 69 70 80 74 71 
68 67 65 54 55 64 74 74 79 
73 77 78 75 72 62 62 63 51 
54 58 66 76 72 66 64 69 69 
75 80 51 61 72 58 74 64 66 
61 64 49 44 45.860767509 56.823035215 51 52.869068243 47.262983648 
83 76 68 63 60 58 69 56 59 
49 51 49 66 76 72 62 66 66 
70 67 82 75 78 83 82 83 75 
75 76 78 78 76 80 76 75 75 
69 63 70 54 62 78 58 78 60 
56 58 62 62 63 59 60 76 78 
90 87 87 83 103 111 103 116 106 
116 115 100 88 92 90 93 94 93 
93 69 83 62 63 68 58 97 63 
97 109 78 129 119 126 121 119 111 
121 108 110 108 111 112 112 98 106 
86 77 81 81 81 82 79 85 54.903899202 
53.613726279 58 77 77 66 52.94577297 62 67 62 
65 67 62 63 63 65 66 62 58 
48 55 48 53 47 56 57 59 54 
76 72 57 62 68 60 55 55 62 
58 60 54 57 65 63 66 67 70 
76 77 75 76 77 78 76 76 70 
66 69 72 75 76 69 68 64 63 
75 77 60 60 48 70 71 75 62 
61 62 59 59 84 76 62 58 64 
65 70 94 88 84 76 89 70 54 
67 62 56 60 90 82 62 56 62 
59 60 58 65 78 82 80 80 61 
65 77 82 70 91 76 81 85 89 
91 68 64 61 68 73 85 79 71 
60 60 65 62 66 77 71 84 85 
89 56 64 57 69 65 54.433805408 54 54 
49 51 50 55 56.845030089 54.705727196 54 60 67 
61 57 58 56 53 49 49 66 70 
73 70 74 76 67 71 80 76 75 
87 90 85 78 77 77 85 72 77 
70 70 65 59 63 69 59 60 72 
76 59 86 70 62 59 67 67 62 
68 64 58 76 65 84 84 88 94 
111 103 93 112 112 116 115 118 118 
112 92 85 86 84 85 76 66 61 
77 110 112 127 106 121 119 110 101 
105 108 113 110 109 105 119 119 81 
107 81 69 75 75 67 55.15366338 54.988041609 62 
57 55.387395635 60 70 72 77 69 70 70 
70 60 59 58 59 55 61 52 46 
47 52 52 50 47 55 59 59 57 
58 57 55 62 72 63 67 78 76 
81 81 76 70 84 73 63 58 55 
59 70 76 74 79 81 76 61 57 
56 60 59 61 62 63 62 77 77 
77 52 52 57 47 52 56 52 67 
69 78 66 53 67 68 48 89 97 
83 76 85 86 65 60 71 64 69 
69 60 57 52 46 54 46 40 47 
50 47 56 47 47 89 94 98 99 
101 95 55 60 53 59 59 59 63 
68 63 64 59 58 62 58 55 54 
86 87 80 91 51 51 53 53 58 
58 57 87 92 89 60 61 61 70 
70 81 80 92 95 96 90 91 90 
79 68 78 73 82 91 89 91 96 
81 63 75 91 56.759768972 61.591993217 62 56 54.188915452 
52 49 53 52.142753041 51 51 53.663596998 51 51 
51 46 47 48 74 73 78 76 78 
83 85 89 98 94 98 87 80 71 
68 65 63 63 54 59 55 59 58 
58 57 58 55 49 48 48 52 94 
86 92 73 82 77 95 75 71 64 
76 90 86 80 85 76 64 73 72 
62 78 77 86 64 86 86 88 94 
101 102 90 111 114 109 109 111 114 
109 105 99 86 87 87 92 80 70 
70 79 64 73 85 115 97 97 114 
107 100 87 96 97 98 96 101 101 
104 108 118 112 119 101 115 101 122 
109 85 88 67 52.415937214 51.078104372 51 56.705313886 54 
50.753488289 55.189661104 53 52 59 64 67 66 66 
69 69 64 63 64 63 62 61 61 
61 56 53 52 49 54 55 58 54 
55 56 60 63 63 63 59 63 87 
87 87 81 70 77 73 76 74 85 
97 85 78 94 84 86 86 69 64 
101 105 105 91 107 99 69 62 66 
73 73 83 75 82 63 74 61 66 
67 70 65 71 59 56 54 43 94 
102 100 43 40 62 49 54 49 53 
53 48 48 50 55 56 59 96 98 
103 52 52 59 56 60 95 65 58 
53 57 54 55 62 59 67 70 96 
103 105 94 96 70 80 86 83 86 
102 102 88 89 85 95 95 89 81 
86 92 97 78 86 101 100 100 89 
96 61.73523246 61.884558074 56 56 50 60 46 52 
48 57 85 82 88 88 92 98 92 
98 102 102 98 91 87 75 71 68 
64 59 61 58 51 54 53 53 57 
57 54 56 56 60 62 60 56 45 
51 47 50 53 53 50 48 86 77 
93 88 71 85 88 92 92 90 88 
83 93 67 71 78 78 86 88 86 
87 100 108 104 101 102 106 100 91 
82 88 78 79 73 72 76 73 88 
108 97 97 92 93 99 85 103 99 
107 109 104 108 55.516576389 65.726587967 71 64.409078823 60.95012722 
60 113 116 119 60.911720128 60.790883882 58 58 68 
122 57.126121931 58.540689493 69 123 120 66.289280717 120 63.23806122 
77 95 63.052645813 62.459321644 56 65 65 57.921366216 59 
57 64 96 55 72 68 69 68 50 
50 69 68 66 68 65 66 64 65 
60 54 56 53 54 54 56 60 59 
58 57 61 59 78 78 73 74 76 
85 79 77 88 76 81 87 96 96 
87 106 104 107 106 110 107 66 65 
71 74 106 105 74 68 64 62 72 
72 72 72 77 76 70 70 59 59 
74 100 66 74 62 54 55 55 48 
48 101 104 55 59 57 64 74 64 
78 105 109 70 57 54 56 58 63 
63 68 72 74 75 105 112 102 113 
118 119 74 79 84 85 85 91 99 
111 111 106 114 116 117 100 95 101 
99 92 104 99 107 101 104 107 61 
62.801126183 63 61 61.715018826 55.233222196 63 54.683420179 55 54 
55 63 65 56 65 85 90 87 97 
103 107 91 97 81 86 78 71 64 
58 59 52 50 50 48 50 49 50 
54 80 88 88 84 80 79 84 78 
54 51 59 65 59 60 66 52 47 
47 50 87 89 89 91 87 93 84 
79 74 83 89 81 90 80 96 102 
87 78 99 85 95 86 94 94 67 
79 66 76 68 76 76 85 92 75 
89 85 94 83 92 101 104 112 105 
57.147178179 68 59.391269936 58.990279995 56.825885291 68 109 114 72 
117 114 114 108 76 119 75 68 78 
117 114 83 79 73 107 117 66 98 
85 76 66 76 63 67 74 63 70 
70 72 63 62 73 72 71 65 69 
70 68 62 68 60 63 69 67 70 
56 56 58 65 71 62 64 62 69 
67 77 72 65 75 75 74 84 77 
100 100 83 76 77 100 105 107 112 
112 109 108 108 112 67 68 68 67 
74 78 80 76 74 70 80 72 72 
79 80 83 76 79 83 72 108 109 
109 64 68 74 72 78 64 70 103 
103 97 99 64 63 63 53 67 61 
62 64 64 103 108 70 78 85 87 
87 70 80 112 112 113 122 107 110 
85 81 85 85 68 74 74 87 74 
80 122 122 119 81 79 85 86 90 
89 95 100 92 97 104 104 110 109 
113 105 105 110 104 104 53.959468236 60 61 
52.483603236 52.237555228 57 51.908884175 52.788349107 51 54 74 88 
95 89 100 97 101 90 86 81 76 
66 75 63 71 82 67 59 50 60 
64 74 74 85 83 79 83 83 88 
50 51 51 57 67 67 58 65 53 
50 50 48 48 94 88 85 98 84 
88 84 88 85 83 87 78 80 79 
77 74 89 87 88 81 88 81 86 
83 77 84 79 77 74 80 85 92 
83 73 84 80 93 92 95 87 70 
83 73 65 65 61 68 61 64 59 
64 77 69 70 77 60.294776591 54 60.712948413 59 
55.279853809 52.194267994 65 77 75 80 56.6943209 99 86 
59 56 56.905131368 56 106 116 89 102 119 
116 72 78 71 78 119 112 118 108 
106 111 81 80 106 103 98 98 73 
82 86 85 73 81 70 71 76 86 
86 72 74 75 75 73 80 85 87 
71 69 73 76 74 73 70 69 66 
63 61 60 66 76 76 59 60 69 
71 63 61 72 72 69 74 74 79 
73 70 77 74 74 71 71 96 100 
100 80 109 106 107 111 113 111 109 
109 107 104 67 70 78 80 74 80 
70 78 88 90 87 84 82 82 78 
104 76 73 79 81 98 76 72 72 
69 69 97 71 70 67 78 72 84 
104 96 87 87 85 86 90 90 85 
91 88 122 123 118 112 116 108 115 
88 94 89 92 115 116 118 122 117 
115 89 91 94 90 90 90 92 93 
100 109 106 113 109 105 105 105 108 
105 110 65 62 59 56 54.412503751 55.071589034 54.312082011 
53.391253115 53 54 54.623073129 54.680499401 52.908215439 51.601816456 62 64 
68 66 63 59 79 81 72 87 87 
93 89 95 88 86 82 85 83 83 
81 76 84 59 50 54 69 78 77 
85 79 77 84 81 79 79 53 53 
49 50 54 50 63 63 63 57 60 
61 57 60 60 53 51 51 70 88 
98 96 80 95 98 77 77 71 81 
78 76 86 82 81 88 83 81 77 
74 75 77 78 76 76 73 79 78 
74 74 95 84 96 66 76 88 62 
71 58 60 63 69 63 63.896930623 57.340035806 61 
65.991961149 61 64 60 64 56.518067604 63 61 71 
70 70 68 73 57 75 75 81 56 
60 59 103 60 66 119 118 76 80 
108 114 79 76 102 98 92 83 90 
82 82 85 83 84 73 78 92 89 
71 73 85 74 77 89 77 77 76 
66 60 61 69 75 73 69 73 64 
79 74 65 73 74 78 77 89 89 
78 83 74 66 69 62 100 95 88 
89 95 101 93 93 91 100 105 105 
66 68 62 62 61 67 74 85 82 
91 91 86 83 84 83 84 102 103 
105 81 78 78 80 82 81 79 78 
104 98 72 74 72 91 96 72 68 
72 74 72 82 88 108 91 102 88 
81 79 90 110 123 108 85 85 91 
91 94 93 96 111 111 116 118 114 
120 93 90 87 89 91 92 105 107 
108 115 112 98 101 105 111 109 107 
107 104 53 57 57 54 65 66 54 
54 53 50.448458524 50.483254506 47.916358476 46 48.247216849 74 69 
78 78 74 90 90 80 80 83 93 
84 80 80 90 88 86 89 85 85 
86 86 63 71 85 74 58 74 78 
81 84 88 56 62 56 58 55 62 
63 53 58 52 51 56 67 93 99 
77 84 81 84 92 83 88 83 102 
102 75 70 69 83 85 77 80 72 
71 79 77 75 76 74 78 72 96 
96 100 109 100 64.086854819 63.332111761 60 102 99 
60.576272004 87 69 72 76 66.97188275 67.861523592 65 68 
68 73 86 84 74 91 63 59 63 
59 76 99 89 82 93 62 85 62 
107 93 104 107 103 61 66 61 66 
122 122 64 126 66 124 114 73 110 
110 114 94 70 70 85 78 78 82 
85 83 83 86 83 76 76 83 93 
94 99 94 71 70 72 74 88 86 
86 70 72 71 77 81 89 78 83 
73 73 61 61 60 62 69 72 71 
68 66 64 66 88 79 80 72 73 
80 80 84 58 66 87 91 81 75 
67 81 62 89 89 84 97 103 103 
105 104 106 48 53 49 60 63 49 
62 70 67 62 59 67 58 77 84 
87 76 86 86 86 82 78 80 73 
82 100 84 80 81 81 79 73 100 
96 72 72 74 74 87 87 76 76 
68 76 70 76 70 90 74 84 76 
90 85 92 87 79 90 80 81 91 
90 91 89 106 96 85 93 72 91 
95 97 99 88 88 118 123 127 128 
120 111 107 101 88 95 95 99 101 
99 97 97 99 105 92 102 100 104 
106 106 110 108 111 110 110 110 110 
110 116 118 63 67 65 58 58 54 
54 54 57 54 46 48.997117222 48.9971659 47 49.425799347 
49 49.216518525 47 67 49.467540357 49.684276324 51.266043696 90 78 
78 87 80 75 75 81 85 81 84 
80 70 75 68 61 70 64 69 81 
82 63 73 70 61 61 62 55 57 
66 72 72 63 56 57 54 54 60 
64 81 80 79 88 87 88 88 82 
97 100 87 92 100 69 81 83 90 
94 95 71 78 75 70 69 75 69 
73 74 72 73 74 76 75 60.563124193 64.854885161 
64 73 72 92 81 66.532728255 67.459703922 70 102 
59 66.213985053 70 64 87 104 102 59 57 
56 82 77 83 90 66 66 61.498728819 101 
84 109 95 109 109 111 101 91 118 
119 58 111 58 63 58 99 67 110 
70 61 61 130 128 133 116 113 105 
105 66 62 102 64 89 70 64 80 
78 75 65 80 87 84 84 82 82 
81 86 82 94 78 98 98 81 67 
70 89 66 74 66 76 69 78 74 
73 63 63 66 67 60 61 65 67 
65 66 62 75 74 85 88 74 67 
82 84 64 69 61 68 91 91 91 
91 88 88 87 95 92 49 52 45 