# vtk DataFile Version 5.1
vtk output
ASCII
DATASET POLYDATA
POINTS 13940 float
213.928 184.565 30.7921 213.647 183.918 31.0332 213.419 183.91 31.2577 
213.914 184.597 30.8074 213.561 183.701 31.1213 213.944 184.6 30.7806 
214.026 184.798 30.7024 214.293 185.438 30.4545 213.688 185.352 31.0444 
213.755 186.076 31.0809 214.356 186.162 30.5071 214.38 185.619 30.3957 
214.111 186.826 31.0846 214.691 186.086 30.3182 214.835 186.792 30.4558 
214.957 186.435 30.2896 215.729 187.28 30.335 215.519 187.054 30.3203 
215.489 187.246 30.4134 214.795 187.441 31.0031 215.741 187.954 30.8603 
215.158 186.673 30.2881 216.049 187.555 30.4109 216.412 187.874 30.4918 
216.48 188.049 30.5965 216.918 188.296 30.6216 217.133 188.469 30.6816 
216.569 188.646 31.1057 216.563 187.998 30.5319 217.189 188.517 30.6942 
217.157 189.144 31.2248 217.749 188.952 30.863 212.62 181.317 32.0917 
212.318 180.483 32.4561 212.029 181.003 32.5195 212.991 182.313 31.6669 
212.902 182.104 31.7456 212.432 182.049 32.243 212.769 182.683 31.9337 
212.636 181.351 32.0805 213.271 183.025 31.376 212.775 183.475 31.9075 
212.107 182.856 32.3599 213.274 183.032 31.373 213.28 183.047 31.3671 
212.836 184.419 31.8383 212.346 183.922 32.2514 213.214 184.899 31.4386 
212.533 185.39 32.1421 212.242 184.672 32.3285 213.033 185.814 31.6637 
213.299 186.728 31.5547 212.634 186.591 32.1451 212.044 186.04 32.3844 
213.899 187.528 31.5175 213.27 187.49 32.0447 212.628 187.483 32.3845 
213.947 188.213 32.049 213.221 188.353 32.3976 214.483 188.078 31.4869 
215.127 188.184 31.2313 213.95 188.949 32.3963 214.804 188.751 31.8689 
214.715 189.381 32.383 215.702 188.702 31.3649 216.291 189.312 31.6376 
215.478 189.234 31.9902 217.066 189.739 31.6462 215.17 190.123 32.4605 
215.975 189.862 32.253 216.329 190.496 32.4412 216.915 190.21 32.1873 
217.829 189.018 30.8834 217.91 189.636 31.3174 218.257 189.348 31.0133 
218.723 189.618 31.2236 218.858 189.704 31.2778 218.469 190.012 31.5569 
217.708 190.275 31.949 217.648 190.956 32.38 218.381 191.286 32.453 
218.535 190.57 32.1067 219.049 189.799 31.3754 219.248 190.291 31.8501 
219.387 191.025 32.3897 219.482 190.032 31.5842 219.922 190.436 31.9705 
220.103 190.376 31.8748 219.86 190.231 31.7691 220.767 190.87 32.0904 
220.44 190.626 31.9848 220.375 190.993 32.2948 221.116 191.142 32.1947 
221.065 191.378 32.3865 221.371 191.303 32.2994 211.791 178.436 33.5391 
211.793 178.352 33.6043 211.75 178.453 33.5659 211.799 178.521 33.4819 
211.77 177.788 34.0108 211.45 177.902 34.1693 211.851 179.019 33.151 
211.328 179.111 33.5881 211.911 179.249 33.0295 211.619 179.63 33.175 
211.642 180.401 32.957 211.054 180.357 33.5106 210.782 179.716 33.7793 
212.034 179.666 32.8234 212.105 179.906 32.7037 212.27 180.325 32.5332 
211.335 181.188 32.9225 210.691 181.118 33.5272 210.807 181.836 33.1541 
211.727 181.833 32.5621 212.627 181.337 32.0833 210.026 183.085 33.4703 
210.585 182.653 32.9917 210.099 182.175 33.5937 211.313 182.408 32.6176 
210.475 183.531 33.0045 211.121 183.121 32.6103 209.481 182.809 33.9651 
210.96 183.963 32.631 210.356 184.371 33.1058 209.841 183.94 33.6235 
211.747 183.593 32.4731 209.796 184.805 33.6736 211.562 184.431 32.4854 
210.902 184.851 32.6579 210.246 185.325 33.2127 210.886 185.573 32.6607 
210.46 186.312 32.9714 211.174 186.253 32.5532 211.718 185.331 32.4726 
209.483 185.449 33.9165 209.933 186.136 33.5471 210.162 187.128 33.3264 
211.784 186.765 32.4639 210.928 187.166 32.6332 210.504 187.807 33.032 
209.951 188.046 33.6255 211.806 187.496 32.4923 211.258 188.152 32.6285 
212.365 188.282 32.5028 210.681 188.54 33.2248 210.892 189.366 33.6298 
211.304 189.057 33.08 211.805 188.776 32.6193 212.503 189.166 32.5785 
213.228 189.438 32.5237 213.965 189.86 32.5068 211.82 189.657 33.1697 
211.218 190.308 33.9355 212.553 190.098 32.9365 212.022 190.346 33.5155 
213.191 190.324 32.6885 213.677 190.856 32.7516 214.387 190.504 32.5245 
215.717 190.946 32.5266 216.825 191.1 32.4776 212.939 190.982 33.3338 
212.045 190.986 33.8193 213.635 191.726 33.5015 214.191 191.449 32.9342 
214.901 191.156 32.5836 217.589 191.835 32.539 214.365 192.139 33.5315 
214.94 191.945 33.0973 215.143 192.681 33.6549 215.538 191.846 32.8398 
216.208 191.704 32.6739 216.903 191.994 32.6609 219.006 191.825 32.5508 
219.731 192.404 32.7702 219.924 191.749 32.5165 220.779 192.037 32.5751 
221.808 191.655 32.4204 221.776 191.997 32.6076 222.105 191.822 32.5571 
222.806 192.145 32.9365 222.478 191.975 32.7732 222.439 192.292 33.0093 
215.95 192.488 33.3801 216.684 192.537 33.1125 218.244 192.304 32.6896 
218.975 192.668 32.9715 221.376 192.655 33.0134 223.53 192.431 33.3619 
223.136 192.262 33.1405 222.968 192.654 33.5233 216.75 193.074 33.5712 
217.587 192.706 33.0696 216.743 193.699 34.0244 217.552 193.359 33.684 
218.321 193.055 33.4028 219.019 193.33 33.6454 219.71 193.032 33.3787 
220.495 192.665 32.9956 220.521 193.242 33.5796 221.416 193.298 33.6629 
222.114 192.923 33.4858 221.954 193.824 34.1438 211.147 177.677 34.8452 
211.923 177.207 34.6657 211.943 177.27 34.5581 211.359 177.165 35.4279 
211.962 176.841 35.3403 211.969 177.204 34.6313 212.021 177.116 34.7445 
212.264 176.73 35.2523 210.748 178.273 34.5229 210.37 178.099 35.1446 
209.769 178.226 35.5327 210.215 178.726 34.7135 210.958 178.632 34.0188 
210.441 179.205 34.1865 209.69 180.609 34.3887 209.968 179.765 34.4122 
209.337 180.047 34.8437 209.712 179.074 34.9529 210.303 180.425 33.9176 
209.99 181.284 33.9306 208.963 180.73 34.8839 209.263 181.376 34.5714 
209.535 181.926 34.0773 209.104 182.328 34.3646 208.673 181.975 34.8035 
208.803 182.898 34.6457 208.088 183.205 34.9451 208.084 182.347 34.9435 
208.725 183.722 34.6895 209.289 183.593 34.1067 209.172 184.538 34.2123 
208.507 184.494 34.8175 208.321 185.276 34.8969 208.918 185.483 34.524 
209.306 186.216 34.0954 208.806 186.319 34.6502 208.984 187.098 34.4893 
208.184 186.149 34.956 209.603 186.873 33.834 209.419 187.537 34.0118 
208.641 187.835 34.7644 209.307 188.293 34.1764 208.786 188.644 34.7143 
210.081 188.857 33.77 209.615 189.157 34.314 209.293 189.628 34.8121 
209.926 190.019 34.7127 210.371 189.762 34.1268 210.535 190.55 34.6014 
210.622 191.219 34.9006 211.391 191.152 34.4629 212.135 191.628 34.1956 
211.869 192.127 34.7747 212.878 191.709 33.7749 211.138 191.85 34.9155 
212.076 193.001 34.9428 212.588 192.302 34.4254 213.323 192.45 34.0724 
214.15 192.713 33.9334 213.67 193.045 34.4919 212.804 192.964 34.756 
214.536 193.244 34.2365 215.258 193.475 34.1685 215.921 193.26 33.8072 
222.694 193.407 33.8684 223.754 192.561 33.4628 223.609 193.066 33.844 
224.439 192.884 33.8274 224.218 192.793 33.699 224.449 193.415 34.3357 
213.302 193.479 34.8722 214.077 193.738 34.8214 214.759 193.939 34.7608 
215.343 194.272 34.7851 216.034 193.936 34.3195 218.405 193.736 34.006 
219.606 193.71 33.9817 220.313 193.885 34.1745 221.036 193.792 34.0993 
221.106 194.337 34.6271 222.928 193.962 34.3816 223.702 193.642 34.387 
223.987 194.181 34.8511 224.894 193.123 34.0502 225.01 193.186 34.1055 
224.897 193.87 34.7475 225.755 193.563 34.4818 225.476 193.418 34.3434 
225.787 193.692 34.6152 225.873 193.623 34.5409 226.316 193.869 34.7479 
216.006 194.641 34.8706 216.828 194.38 34.6645 217.484 193.902 34.2177 
217.461 194.971 34.9345 217.778 194.326 34.6287 218.598 194.286 34.5825 
219.15 194.859 34.9368 219.319 194.197 34.5112 220.072 194.433 34.7286 
222.109 194.378 34.6628 222.565 194.941 34.9578 223.245 194.523 34.8677 
221.598 195.01 34.9488 212.615 176.177 35.9838 212.782 175.987 36.2758 
212.495 176.185 36.0958 212.337 176.614 35.4058 211.823 176.586 35.9766 
212.515 176.339 35.7715 210.378 176.972 36.6941 209.655 177.369 36.6684 
210.16 177.588 36.0089 210.751 177.581 35.522 210.923 177.102 36.0642 
211.304 176.623 36.4625 209.364 177.911 36.2387 208.654 178.504 36.3122 
209.186 178.66 35.7307 208.59 179.312 35.8246 209.112 179.412 35.2839 
208.551 180.059 35.204 207.913 179.904 35.6416 207.995 179.167 36.2048 
207.289 179.538 36.2377 207.102 180.154 35.8391 206.463 179.629 36.4382 
206.415 180.331 36.0671 206.149 181.074 35.6154 206.8 180.811 35.4054 
207.464 180.626 35.2847 208.129 180.686 35.0802 205.786 180.511 36.2337 
205.513 181.276 35.9615 206.82 181.437 35.0937 208.431 181.365 34.957 
204.886 181.401 36.2388 204.515 182.25 35.993 205.185 182.012 35.6119 
205.944 181.711 35.3064 206.534 182.186 35.0423 207.629 181.383 35.0332 
207.331 182.128 35.0071 204.705 182.818 35.4251 203.999 182.999 35.9691 
203.614 182.525 36.3529 204.136 181.8 36.414 205.64 182.489 35.1333 
206.468 182.934 35.0106 207.342 182.94 35.0021 205.342 183.231 35.0619 
204.684 183.703 35.1532 206.015 183.424 35.0077 204.137 183.679 35.6004 
205.252 184.22 35.0178 206.044 184.196 35.0033 206.916 183.638 35.0025 
206.832 184.394 35.0025 207.763 183.915 34.9831 204.569 184.799 35.0737 
204.054 184.433 35.4492 203.479 183.775 36.1263 203.369 184.62 35.995 
207.595 184.741 34.9931 203.729 185.174 35.4763 203.863 185.977 35.2609 
204.572 185.591 35.0337 205.487 185.027 35.0059 206.221 185.2 35.0025 
206.917 185.286 35.0025 207.611 185.63 34.9966 203.116 185.535 35.9893 
205.362 185.843 35.0032 206.065 186.167 35.0025 206.793 186.075 35.0025 
207.391 186.534 34.9998 202.646 186.257 36.411 203.239 186.407 35.8615 
204.637 186.568 35.0244 206.415 186.972 35.0025 208.293 186.933 34.9318 
203.721 186.768 35.3381 205.463 186.789 35.0031 207.099 187.347 35.0025 
206.643 188.021 35.0025 204.143 187.323 35.1035 203.544 187.667 35.5086 
203.025 187.203 36.0563 204.188 188.117 35.0759 204.928 187.495 35.0036 
205.768 187.618 35.0025 207.825 187.425 34.9909 204.971 188.39 35.0025 
205.818 188.428 35.0025 207.81 188.174 34.9874 202.985 188.054 36.098 
203.477 188.502 35.603 203.219 189.194 35.8896 204.06 188.878 35.1228 
205.48 189.124 35.0025 206.557 188.865 35.0025 207.296 188.687 35.0023 
208.054 189.045 34.9876 203.508 190.488 35.7313 203.723 189.625 35.3452 
202.964 189.898 36.1492 204.582 189.458 35.0253 206.185 189.518 35.0025 
[...]
POINT_DATA 13940
FIELD FieldData 3
autolabels 1 13940 double
36 36 36 36 36 36 36 36 36 
36 36 36 36 36 36 36 36 36 
36 36 36 36 36 36 36 36 36 
36 36 36 36 36 36 36 36 36 
36 36 36 36 36 36 36 36 36 
36 36 36 36 36 36 36 36 36 
36 36 36 36 36 36 36 36 36 
36 36 36 36 36 36 36 36 36 
36 36 36 36 36 36 36 36 36 
36 36 36 36 36 36 36 36 36 
36 36 36 36 36 36 36 36 36 
36 36 36 36 36 36 36 36 36 
36 36 36 36 36 36 36 36 36 
36 36 36 36 36 36 36 36 36 
36 36 36 36 36 36 36 36 36 
36 36 36 36 36 36 36 36 36 
36 36 36 36 36 36 36 36 36 
36 36 36 36 36 36 36 36 36 
36 36 36 36 36 36 36 36 36 
36 36 36 36 36 36 36 36 36 
36 36 36 36 36 36 36 36 36 
36 36 36 36 36 36 36 36 36 
36 36 36 36 36 36 36 36 36 
36 36 36 36 36 36 36 36 36 
36 36 36 36 36 36 36 36 36 
36 36 36 36 36 36 36 36 36 
36 36 36 36 36 36 36 36 36 
36 36 36 36 36 36 36 36 36 
36 36 36 36 36 36 36 36 36 
36 36 36 36 36 36 36 36 36 
36 36 36 36 36 36 36 36 36 
36 36 36 36 36 36 36 36 36 
36 36 36 36 36 36 36 36 36 
36 36 36 36 36 36 36 36 36 
36 36 36 36 36 36 36 36 36 
36 36 36 36 36 36 36 36 36 
36 36 36 36 36 36 36 36 36 
36 36 36 36 36 36 36 36 36 
36 36 36 36 36 36 36 36 36 
36 36 36 36 36 36 36 36 36 
36 36 36 36 36 36 36 36 36 
36 36 36 36 36 36 36 36 36 
36 36 36 36 36 36 36 36 36 
36 36 36 36 36 36 36 36 36 
36 36 36 36 36 36 36 36 36 
36 36 36 36 36 36 36 36 36 
36 36 36 36 36 36 36 36 36 
36 36 36 36 36 36 36 36 36 
36 36 36 36 36 36 36 36 36 
36 36 36 36 36 36 36 36 36 
36 36 36 36 36 36 36 36 36 
36 36 36 36 36 36 36 36 36 
36 36 36 36 36 36 36 36 36 
36 36 36 36 36 36 36 36 36 
36 36 36 36 36 36 36 36 36 
36 36 36 36 36 36 36 36 36 
36 36 36 36 36 36 36 36 36 
36 36 36 36 36 36 36 36 36 
36 36 36 36 36 36 36 36 36 
36 36 36 36 36 36 36 36 36 
36 36 36 36 36 36 36 36 36 
36 36 36 36 36 36 36 36 36 
36 36 36 36 36 36 36 36 36 
36 36 36 36 36 36 36 36 36 
36 36 36 36 36 36 36 36 36 
36 36 36 36 36 36 36 36 36 
36 36 36 36 36 36 36 36 36 
36 36 36 36 36 36 36 36 36 
36 36 36 36 36 36 36 36 36 
36 36 36 36 36 36 36 36 36 
36 36 36 36 36 36 36 36 36 
36 36 36 36 36 36 36 36 36 
36 36 36 36 36 36 36 36 36 
36 36 36 36 36 36 36 36 36 
36 36 36 36 36 36 36 36 36 
36 36 36 36 36 36 36 36 36 
36 36 36 36 36 36 36 36 36 
36 36 36 36 36 36 36 36 36 
36 36 36 36 36 36 36 36 36 
36 36 36 36 36 36 36 36 36 
36 36 36 36 36 36 36 36 36 
36 36 36 36 36 36 36 36 36 
36 36 36 36 36 36 36 36 36 
36 36 36 36 36 36 36 36 36 
36 36 36 36 36 36 36 36 36 
36 36 36 36 36 36 36 36 36 
36 36 36 36 36 36 36 36 36 
36 36 36 36 36 36 36 36 36 
36 36 36 36 36 36 36 36 36 
36 36 36 36 36 36 36 36 36 
36 36 36 36 36 36 36 36 36 
36 36 36 36 36 36 36 36 36 
36 36 36 36 36 36 36 36 36 
36 36 36 36 36 36 36 36 36 
36 36 36 36 36 36 36 36 36 
36 36 36 36 36 36 36 36 36 
36 36 36 36 36 36 36 36 36 
36 36 36 36 36 36 36 36 36 
36 36 36 36 36 36 36 36 36 
36 36 36 36 36 36 36 36 36 
36 36 36 36 36 36 36 36 36 
36 36 36 36 36 36 36 36 36 
36 36 36 36 36 36 36 36 36 
36 36 36 36 36 36 36 36 36 
36 36 36 36 36 36 36 36 36 
36 36 36 36 36 36 36 36 36 
36 36 36 36 36 36 36 36 36 
36 36 36 36 36 36 36 36 36 
36 36 36 36 36 36 36 36 36 
36 36 36 36 36 36 36 36 36 
36 36 36 36 36 36 36 36 36 
36 36 36 36 36 36 36 36 36 
36 36 36 36 36 36 36 36 36 
36 36 36 36 36 36 36 36 36 
36 36 36 36 36 36 36 36 36 
36 36 36 36 36 36 36 36 36 
36 36 36 36 36 36 36 36 36 
36 36 36 36 36 36 36 36 36 
36 36 36 36 36 36 36 36 36 
36 36 36 36 36 36 36 36 36 
36 36 36 36 36 36 36 36 36 
36 36 36 36 36 36 36 36 36 
36 36 36 36 36 36 36 36 36 
36 36 36 36 36 36 36 36 36 
36 36 36 36 36 36 36 36 36 
36 36 36 36 36 36 36 36 36 
36 36 36 36 36 36 36 36 36 
36 36 36 36 36 36 36 36 36 
36 36 36 36 36 36 36 36 36 
36 36 36 36 36 36 36 36 36 
36 36 36 36 36 36 36 36 36 
36 36 36 36 36 36 36 36 36 
36 36 36 36 36 36 36 36 36 
36 36 36 36 36 36 36 36 36 
36 36 36 36 36 36 36 36 36 
36 36 36 36 36 36 36 36 36 
36 36 36 36 36 36 36 36 36 
36 36 36 36 36 36 36 36 36 
36 36 36 36 36 36 36 36 36 
36 36 36 36 36 36 36 36 36 
36 36 36 36 36 36 36 36 36 
36 36 36 36 36 36 36 36 36 
36 36 36 36 36 36 36 36 36 
36 36 36 36 36 36 36 36 36 
36 36 36 36 36 36 36 36 36 
36 36 36 36 36 36 36 36 36 
36 36 36 36 36 36 36 36 36 
36 36 36 36 36 36 36 36 36 
36 36 36 36 36 36 36 36 36 
36 36 36 36 36 36 36 36 36 
36 36 36 36 36 36 36 36 36 
36 36 36 36 36 36 36 36 36 
36 36 36 36 36 36 36 36 36 
36 36 36 36 36 36 36 36 36 
36 36 36 36 36 36 36 36 36 
36 36 36 36 36 36 36 36 36 
36 36 36 36 36 36 36 36 36 
36 36 36 36 36 36 36 36 36 
36 36 36 36 36 36 36 36 36 
36 36 36 36 36 36 36 36 36 
36 36 36 36 36 36 36 36 36 
36 36 36 36 36 36 36 36 36 
36 36 36 36 36 36 36 36 36 
36 36 36 36 36 36 36 36 36 
36 36 36 36 36 36 36 36 36 
36 36 36 36 36 36 36 36 36 
36 36 36 36 36 36 36 36 36 
36 36 36 36 36 36 36 36 36 
36 36 36 36 36 36 36 36 36 
36 36 36 36 36 36 36 36 36 
36 36 36 36 36 36 36 36 36 
36 36 36 36 36 36 36 36 36 
36 36 36 36 36 36 36 36 36 
36 36 36 36 36 36 36 36 36 
36 36 36 36 36 36 36 36 36 
36 36 36 36 36 36 36 36 36 
36 36 36 36 36 36 36 36 36 
36 36 36 36 36 36 36 36 36 
36 36 36 36 36 36 36 36 36 
36 36 36 36 36 36 36 36 36 
36 36 36 36 36 36 36 36 36 
36 36 36 36 36 36 36 36 36 
36 36 36 36 36 36 36 36 36 
36 36 36 36 36 36 36 36 36 
36 36 36 36 36 36 36 36 36 
36 36 36 36 36 36 36 36 36 
36 36 36 36 36 36 36 36 36 
36 36 36 36 36 36 36 36 36 
36 36 36 36 36 36 36 36 36 
36 36 36 36 36 36 36 36 36 
36 36 36 36 36 36 36 36 36 
36 36 36 36 36 36 36 36 36 
36 36 36 36 36 36 36 36 36 
36 36 36 36 36 36 36 36 36 
36 36 36 36 36 36 36 36 36 
36 36 36 36 36 36 36 36 36 
36 36 36 36 36 36 36 36 36 
36 36 36 36 36 36 36 36 36 
36 36 36 36 36 36 36 36 36 
36 36 36 36 36 36 36 36 36 
36 36 36 36 36 36 36 36 36 
36 36 36 36 36 36 36 36 36 
36 36 36 36 36 36 36 36 36 
36 36 36 36 36 36 36 36 36 
36 36 36 36 36 36 36 36 36 
36 36 36 36 36 36 36 36 36 
36 36 36 36 36 36 36 36 36 
36 36 36 36 36 36 36 36 36 
36 36 36 36 36 36 36 36 36 
36 36 36 36 36 36 36 36 36 
36 36 36 36 36 36 36 36 36 
36 36 36 36 36 36 36 36 36 
36 36 36 36 36 36 36 36 36 
36 36 36 36 36 36 36 36 36 
36 36 36 36 36 36 36 36 36 
36 36 36 36 36 36 36 36 36 
36 36 36 36 36 36 36 36 36 
36 36 36 36 36 36 36 36 36 
36 36 36 36 36 36 36 36 36 
36 36 36 36 36 36 36 36 36 
36 36 36 36 36 36 36 36 36 
36 36 36 36 36 36 36 36 36 
36 36 36 36 36 36 36 36 36 
36 36 36 36 36 36 36 36 36 
36 36 36 36 36 36 36 36 36 
36 36 36 36 36 36 36 36 36 
36 36 36 36 36 36 36 36 36 
36 36 36 36 36 36 36 36 36 
36 36 36 36 36 36 36 36 36 
36 36 36 36 36 36 36 36 36 
36 36 77 36 36 36 36 77 36 
36 36 36 36 36 36 36 36 36 
36 36 36 36 36 36 36 36 36 
36 36 36 36 36 36 36 36 36 
36 36 36 36 36 36 36 36 36 
36 36 36 36 36 36 36 36 36 
36 36 36 36 36 36 36 36 36 
36 36 36 36 36 36 36 36 36 
36 36 36 36 36 36 36 36 36 
36 36 36 36 36 36 36 36 36 
36 36 36 36 36 36 36 36 36 
36 36 36 36 36 36 36 36 36 
36 36 36 36 36 36 36 36 36 
36 36 36 36 36 36 36 36 36 
36 36 36 36 36 36 36 36 36 
36 36 36 36 36 36 36 36 36 
36 36 36 36 36 36 36 36 36 
36 36 36 36 36 36 36 36 36 
36 36 36 36 36 36 36 36 36 
36 36 36 36 36 36 36 36 36 
36 36 36 36 36 36 36 36 36 
36 36 36 36 36 36 36 36 36 
36 36 36 36 36 36 36 36 36 
36 36 36 36 36 36 36 36 36 
36 36 36 36 36 36 36 36 36 
36 36 36 36 36 36 36 36 36 
36 36 36 36 36 36 36 36 36 
36 36 36 36 36 36 36 36 36 
77 77 77 36 36 36 36 36 36 
36 36 36 36 36 36 36 36 77 
77 36 36 36 77 36 36 36 36 
36 36 77 36 36 36 36 36 36 
36 36 36 36 36 36 36 36 36 
36 36 36 36 36 36 36 36 36 
36 36 36 36 36 36 36 36 36 
36 36 36 36 36 36 36 36 36 
36 36 36 36 36 36 36 36 36 
36 36 36 36 36 36 36 36 36 
36 36 36 36 36 36 36 36 36 
36 36 36 36 36 36 36 36 36 
36 36 36 36 36 36 36 36 36 
36 36 36 36 36 36 36 36 36 
36 36 36 36 36 36 36 36 36 
36 36 36 36 36 36 36 36 36 
36 36 36 36 36 36 36 36 36 
36 36 36 36 36 36 36 36 36 
36 36 36 36 36 36 36 36 36 
36 36 36 36 36 36 36 36 36 
36 36 36 36 36 36 36 36 36 
36 36 36 36 36 36 36 36 36 
36 36 36 36 36 36 36 36 36 
36 36 36 36 36 36 36 36 36 
36 36 36 36 36 36 36 36 36 
36 36 36 36 36 36 36 36 36 
36 36 36 36 36 36 36 77 77 
77 36 36 36 36 36 36 36 36 
36 36 36 36 36 36 36 36 36 
36 36 36 36 36 36 36 77 36 
36 36 36 36 36 36 36 36 36 
77 36 36 36 36 36 36 36 36 
36 36 36 36 36 36 36 36 36 
36 36 36 36 36 36 36 36 36 
36 36 36 36 36 36 36 36 36 
36 36 36 36 36 36 36 36 36 
36 36 36 36 36 36 36 36 36 
36 36 36 36 36 36 36 36 36 
36 36 36 36 36 36 36 36 36 
36 36 36 36 36 36 36 36 36 
36 36 36 36 36 36 36 36 36 
36 36 36 36 36 36 36 36 36 
36 36 36 36 36 36 36 36 36 
36 36 36 36 36 36 36 36 36 
36 36 36 36 36 36 36 36 36 
36 36 36 36 36 36 36 36 36 
36 36 36 36 36 36 36 36 36 
36 36 36 36 36 36 36 36 36 
36 36 36 36 36 36 36 36 36 
36 36 36 36 36 36 36 36 36 
36 36 36 36 36 36 36 36 36 
36 36 36 36 36 36 36 36 36 
36 36 36 36 36 36 36 36 36 
36 36 36 36 36 36 36 36 36 
36 36 36 36 36 36 36 36 36 
36 36 36 36 36 36 36 36 36 
36 77 77 36 36 36 36 36 36 
36 36 36 36 36 36 36 36 36 
36 36 36 36 36 36 36 36 36 
36 36 36 36 36 36 36 36 36 
36 36 36 36 36 77 77 36 36 
36 36 36 36 36 36 36 36 36 
36 77 36 36 36 36 36 36 36 
36 36 36 36 36 36 36 36 36 
36 36 36 36 36 36 36 36 36 
36 36 36 36 36 36 36 36 36 
36 36 36 36 36 36 36 36 36 
36 36 36 36 36 36 36 36 36 
36 36 36 36 36 36 36 36 36 
36 36 36 36 36 36 36 36 36 
36 36 36 36 36 36 36 36 36 
36 36 36 36 36 36 36 36 36 
36 36 36 36 36 36 36 36 36 
36 36 36 36 36 36 36 36 36 
36 36 36 36 36 36 36 36 36 
36 36 36 36 36 36 36 36 36 
36 36 36 36 36 36 36 36 36 
36 36 36 36 36 36 36 36 36 
36 36 36 36 36 36 36 36 36 
36 36 36 36 36 36 36 36 36 
36 36 36 36 36 36 36 36 36 
36 36 36 36 36 36 36 36 36 
36 36 36 36 36 36 36 36 36 
36 36 36 36 36 36 36 36 36 
36 36 36 36 36 36 36 36 77 
36 36 36 36 36 36 36 36 36 
36 36 36 36 36 36 36 36 36 
36 36 36 36 36 36 36 36 36 
36 36 36 36 36 36 36 36 36 
36 36 36 36 36 36 36 36 36 
36 36 36 36 36 36 36 36 77 
77 36 36 36 36 36 36 36 36 
36 36 36 36 36 36 36 36 36 
36 36 36 36 36 36 36 36 36 
36 36 36 36 36 36 36 36 36 
36 36 36 36 36 36 36 36 36 
36 36 36 36 36 36 36 36 36 
36 36 36 36 36 36 36 36 36 
36 36 36 36 36 36 36 36 36 
36 36 36 36 36 36 36 36 36 
36 36 36 36 36 36 36 36 36 
36 36 36 36 36 36 36 36 36 
36 36 36 36 36 36 36 36 36 
36 36 36 36 36 36 36 36 36 
36 36 36 36 36 36 36 36 36 
36 36 36 36 36 36 36 36 36 
36 36 36 36 36 36 36 36 36 
36 36 36 36 36 36 36 36 36 
36 36 36 36 36 36 36 36 36 
36 36 36 36 36 36 36 36 36 
36 36 36 36 36 36 36 36 36 
36 36 36 36 36 36 36 36 36 
36 36 36 36 36 36 36 36 36 
77 77 77 36 36 36 36 36 36 
36 36 36 36 36 36 36 36 36 
36 36 36 36 36 36 36 36 36 
36 36 36 36 36 36 36 36 36 
36 36 36 36 36 36 36 36 36 
36 36 36 36 36 36 36 36 36 
36 36 36 36 36 36 36 77 77 
36 77 36 36 36 36 36 36 36 
36 36 36 36 36 36 36 36 36 
36 36 36 36 36 36 36 36 36 
36 36 36 36 36 36 36 36 36 
36 36 36 36 36 36 36 36 36 
36 36 36 36 36 36 36 36 36 
36 36 36 36 36 36 36 36 36 
36 36 36 36 36 36 36 36 36 
36 36 36 36 36 36 36 36 36 
36 36 36 36 36 36 36 36 36 
36 36 36 36 36 36 36 36 36 
36 36 36 36 36 36 36 36 36 
36 36 36 36 36 36 36 36 36 
36 36 36 36 36 36 36 36 36 
36 36 36 36 36 36 36 36 36 
36 36 36 36 36 36 36 36 36 
36 36 36 36 36 36 36 36 36 
36 36 36 36 36 36 36 36 36 
36 36 36 36 36 36 36 36 36 
36 36 36 36 36 36 36 36 36 
36 36 36 36 36 36 36 36 36 
36 36 36 36 36 36 36 36 36 
36 36 36 36 36 36 36 36 36 
36 36 36 36 36 36 36 36 36 
36 36 36 36 36 36 36 36 36 
36 36 36 36 36 36 36 36 36 
36 36 36 36 77 36 36 36 36 
36 36 36 36 36 36 36 36 36 
36 36 36 36 36 36 36 36 36 
36 36 36 36 36 36 36 36 36 
36 36 36 36 36 36 36 36 36 
36 36 36 36 36 36 36 36 36 
36 36 36 77 77 36 36 36 36 
36 36 36 36 36 36 36 36 36 
36 36 36 36 36 36 36 36 36 
36 36 36 36 36 36 36 36 36 
36 36 36 36 36 36 36 36 36 
36 36 36 36 36 36 36 36 36 
36 36 36 36 36 36 36 36 36 
36 36 36 36 36 36 36 36 36 
36 36 36 36 36 36 36 36 36 
36 36 36 36 36 36 36 36 36 
36 36 36 36 36 36 36 36 36 
36 36 36 36 36 36 36 36 36 
36 36 36 36 36 36 36 36 36 
36 36 36 36 36 36 36 36 36 
36 36 36 36 36 36 36 36 36 
36 36 36 36 36 36 36 36 36 
36 36 36 36 36 36 36 36 36 
36 36 36 36 36 36 36 36 36 
36 36 36 36 36 36 36 36 36 
36 36 36 36 36 36 36 36 36 
36 36 36 36 36 36 36 36 36 
36 36 36 36 36 36 36 36 36 
36 36 36 36 36 36 36 36 36 
36 36 36 36 36 36 36 36 36 
36 36 36 36 36 36 36 36 36 
36 36 36 36 77 77 36 36 36 
36 36 36 36 36 36 36 36 36 
36 36 36 36 36 36 36 36 36 
36 36 36 36 36 36 36 36 36 
36 36 36 36 36 36 36 36 36 
36 36 36 77 36 36 36 36 36 
36 36 36 36 36 36 36 36 36 
36 36 36 36 36 36 36 36 36 
36 36 36 36 36 36 36 36 36 
36 36 36 36 36 36 36 36 36 
36 36 36 36 36 36 36 36 36 
36 36 36 36 36 36 36 36 36 
36 36 36 36 36 36 36 36 36 
36 36 36 36 36 36 36 36 36 
36 36 36 36 36 36 36 36 36 
36 36 36 36 36 36 36 36 36 
36 36 36 36 36 36 36 36 36 
36 36 36 36 36 36 36 36 36 
36 36 36 36 36 36 36 36 36 
36 36 36 36 36 36 36 36 36 
36 36 36 36 36 36 36 36 36 
36 36 36 36 36 36 36 36 36 
36 36 36 36 36 36 36 36 36 
36 36 36 36 36 36 36 36 36 
36 36 36 36 36 36 36 36 36 
36 36 36 36 36 36 36 36 36 
36 36 36 36 36 36 36 36 36 
36 36 36 36 36 36 36 36 36 
36 36 36 36 36 36 36 36 36 
36 36 36 36 36 36 36 77 36 
77 36 36 36 36 36 36 36 36 
36 36 36 36 36 36 36 36 36 
36 36 36 36 36 36 36 36 36 
36 36 36 36 36 36 36 36 36 
36 36 36 36 36 36 36 36 36 
36 77 36 77 36 36 36 36 36 
36 36 36 36 36 36 36 36 36 
36 36 36 36 36 36 36 36 36 
36 36 36 36 36 36 36 36 36 
36 36 36 36 36 36 36 36 36 
36 36 36 36 36 36 36 36 36 
36 36 36 36 36 36 36 36 36 
36 36 36 36 36 36 36 36 36 
36 36 36 36 36 36 36 36 36 
36 36 36 36 36 36 36 36 36 
36 36 36 36 36 36 36 36 36 
36 36 36 36 36 36 36 36 36 
36 36 36 36 36 36 36 36 36 
36 36 36 36 36 36 36 36 36 
36 36 36 36 36 36 36 36 36 
36 36 36 36 36 36 36 36 36 
36 36 36 36 36 36 36 36 36 
36 36 36 36 36 36 36 36 36 
36 36 36 36 36 36 36 36 36 
36 36 36 36 36 36 36 36 36 
36 36 36 36 36 36 36 36 36 
36 36 36 36 36 36 36 36 36 
36 36 36 36 36 36 36 36 36 
36 36 36 36 36 36 36 36 36 
36 36 36 36 36 36 36 36 36 
36 36 36 36 36 36 36 36 36 
36 36 36 36 36 36 36 36 36 
36 36 36 36 36 36 36 36 36 
36 36 36 36 77 36 77 36 36 
36 36 36 36 36 36 36 36 36 
36 36 36 36 36 36 36 36 36 
36 36 36 36 36 36 36 36 36 
36 36 36 36 36 36 36 36 36 
36 36 36 36 36 36 36 36 36 
36 77 36 36 36 36 36 36 36 
36 36 36 36 36 36 36 36 36 
36 36 36 36 36 36 36 36 36 
36 36 36 36 36 36 36 36 36 
36 36 36 36 36 36 36 36 36 
36 36 36 36 36 36 36 36 36 
36 36 36 36 36 36 36 36 36 
36 36 36 36 36 36 36 36 36 
36 36 36 36 36 36 36 36 36 
36 36 36 36 36 36 36 36 36 
36 36 36 36 36 36 36 36 36 
36 36 36 36 36 36 36 36 36 
36 36 36 36 36 36 36 36 36 
36 36 36 36 36 36 36 36 36 
36 36 36 36 36 36 36 36 36 
36 36 36 36 36 36 36 36 36 
36 36 36 36 36 36 36 36 36 
36 36 36 36 36 36 36 36 36 
36 36 36 36 36 36 36 36 36 
36 36 36 36 36 36 36 36 36 
36 36 36 36 36 36 36 36 36 
36 36 36 36 36 36 36 36 36 
36 36 36 36 36 36 36 36 36 
36 36 36 36 36 36 36 36 36 
36 36 36 36 36 36 36 36 36 
36 36 36 36 36 36 36 36 36 
36 36 36 36 36 36 36 36 36 
36 36 36 36 77 36 36 36 36 
36 36 36 36 36 36 36 36 36 
36 36 36 36 36 36 36 36 36 
36 36 36 36 36 36 36 36 36 
36 36 36 36 36 36 36 36 36 
36 36 77 36 36 36 36 36 36 
36 36 36 36 36 36 36 36 36 
36 36 36 36 36 36 36 36 36 
36 36 36 36 36 36 36 36 36 
36 36 36 36 36 36 36 36 36 
36 36 36 36 36 36 36 36 36 
36 36 36 36 36 36 36 36 36 
36 36 36 36 36 36 36 36 36 
36 36 36 36 36 36 36 36 36 
36 36 36 36 36 36 36 36 36 
36 36 36 36 36 36 36 36 36 
36 36 36 36 36 36 36 36 36 
36 36 36 36 36 36 36 36 36 
36 36 36 36 36 36 36 36 36 
36 36 36 36 36 36 36 36 36 
36 36 36 36 36 36 36 36 36 
36 36 36 36 36 36 36 36 36 
36 36 36 36 36 36 36 36 36 
36 36 36 36 36 36 36 36 36 
36 36 36 36 36 36 36 36 36 
36 36 36 36 36 36 36 36 36 
36 36 36 36 36 36 36 36 36 
36 36 36 36 36 36 36 36 36 
36 36 36 36 36 36 36 36 36 
36 36 36 36 36 36 36 36 36 
36 36 36 36 36 36 36 36 36 
36 36 36 36 36 36 36 36 36 
36 36 36 36 36 36 36 36 36 
36 36 36 36 36 36 36 36 36 
36 36 36 77 36 77 36 36 36 
36 77 77 36 36 36 36 36 36 
36 36 36 36 36 36 36 36 36 
36 36 36 36 36 36 36 36 36 
36 36 36 36 36 36 36 36 36 
36 36 36 36 77 77 36 36 77 
36 36 36 36 36 36 36 36 36 
36 36 36 36 36 36 36 36 36 
36 36 36 36 36 36 36 36 36 
36 36 36 36 36 36 36 36 36 
36 36 36 36 36 36 36 36 36 
36 36 36 36 36 36 36 36 36 
36 36 36 36 36 36 36 36 36 
36 36 36 36 36 36 36 36 36 
36 36 36 36 36 36 36 36 36 
36 36 36 36 36 36 36 36 36 
36 36 36 36 36 36 36 36 36 
36 36 36 36 36 36 36 36 36 
36 36 36 36 36 36 36 36 36 
36 36 36 36 36 36 36 36 36 
36 36 36 36 36 36 36 36 36 
36 36 36 36 36 36 36 36 36 
36 36 36 36 36 36 36 36 36 
36 36 36 36 36 36 36 36 36 
36 36 36 36 36 36 36 36 36 
36 36 36 36 36 36 36 36 36 
36 36 36 36 36 36 36 36 36 
36 36 36 36 36 36 36 36 36 
36 36 36 36 36 36 36 36 36 
36 36 36 36 36 36 36 36 36 
36 36 36 36 36 36 36 36 36 
36 36 36 36 36 36 36 36 36 
36 36 36 36 36 36 36 36 36 
36 36 36 36 36 36 36 36 36 
36 36 36 36 36 36 36 36 36 
36 36 36 36 36 36 36 36 36 
36 36 36 36 36 36 36 36 36 
36 36 36 36 36 36 36 36 36 
36 36 36 36 36 36 36 36 36 
36 36 36 36 36 36 36 36 36 
36 36 36 36 36 36 36 36 36 
36 36 36 36 36 36 36 77 77 
36 36 36 36 36 36 36 36 36 
36 36 36 36 36 36 36 36 36 
36 36 36 36 36 36 36 36 36 
36 36 36 36 36 36 36 36 36 
36 36 36 36 36 36 36 36 36 
36 36 36 36 36 36 36 36 36 
36 36 36 36 36 36 36 36 36 
36 36 36 36 36 36 36 36 36 
36 36 36 36 36 36 36 36 36 
36 36 36 36 36 36 36 36 36 
36 36 36 36 36 36 36 36 36 
36 36 36 36 36 36 36 36 36 
36 36 36 36 36 36 36 36 36 
36 36 36 36 36 36 36 36 36 
36 36 36 36 36 36 36 36 36 
36 36 36 36 36 36 36 36 36 
36 36 36 36 36 36 36 36 36 
36 36 36 36 36 36 36 36 36 
36 36 36 36 36 36 36 36 36 
36 36 36 36 36 36 36 36 36 
36 36 36 36 36 36 36 36 36 
36 36 36 36 36 36 36 36 36 
36 36 36 36 36 36 36 36 36 
36 36 36 36 36 36 36 36 36 
36 36 36 36 36 36 36 36 36 
36 36 36 36 36 36 36 36 36 
36 36 36 36 36 36 36 36 36 
36 36 36 36 36 36 36 36 36 
36 36 36 36 36 36 36 36 36 
36 36 36 36 36 36 36 36 36 
36 36 36 36 36 36 36 36 36 
36 36 36 36 36 36 36 36 36 
36 36 36 36 36 36 36 36 36 
36 36 36 36 36 36 36 36 36 
36 36 36 36 36 36 36 36 36 
36 36 36 36 36 36 36 36 36 
36 36 36 36 36 36 36 36 77 
77 36 36 36 36 36 36 77 36 
36 36 36 36 36 36 36 36 36 
77 77 36 77 36 36 36 36 36 
36 36 36 77 36 36 36 77 36 
36 36 36 36 36 36 77 36 36 
36 36 36 36 77 36 36 36 36 
36 36 36 77 36 36 36 36 36 
36 36 77 36 36 36 36 36 36 
36 36 36 36 36 36 36 36 36 
36 36 36 36 36 36 36 36 36 
36 36 36 36 36 36 36 36 36 
36 36 36 36 36 36 79 36 36 
36 36 36 36 79 36 36 36 36 
79 79 36 36 36 36 36 36 36 
36 36 36 36 36 36 36 36 36 
36 36 36 36 36 36 36 36 36 
36 36 36 36 36 36 36 36 36 
36 36 36 36 36 36 36 36 36 
36 36 36 36 36 36 36 36 79 
79 36 36 36 36 36 36 36 36 
36 36 36 36 36 36 36 36 36 
36 36 36 36 36 36 36 36 36 
36 36 36 36 36 36 36 36 36 
36 36 36 36 36 36 36 36 36 
36 36 36 36 36 36 36 36 36 
36 36 36 36 36 36 36 36 36 
36 36 36 36 36 36 36 36 36 
36 36 36 36 36 36 36 36 36 
36 36 36 36 36 36 36 36 36 
36 36 36 36 36 36 36 36 36 
36 36 36 36 36 36 36 36 36 
36 36 36 36 36 36 36 36 36 
36 36 36 36 36 36 36 36 36 
36 36 36 36 36 36 36 36 36 
36 36 36 36 36 36 36 36 36 
36 36 36 36 36 36 36 36 36 
36 36 36 36 36 36 36 36 36 
36 36 36 36 36 36 36 36 36 
36 36 36 36 36 36 36 36 36 
36 36 36 36 36 36 36 36 36 
36 36 36 36 36 36 36 36 36 
36 36 36 36 36 36 36 36 36 
36 36 36 36 36 36 36 36 36 
36 36 36 36 36 36 36 36 36 
36 36 36 36 36 36 36 36 36 
36 36 36 36 36 36 36 36 36 
36 36 36 36 36 36 36 36 36 
36 36 36 36 36 36 36 36 36 
36 36 36 36 36 36 36 36 36 
36 36 36 36 36 36 36 36 36 
36 36 36 36 36 36 36 36 36 
36 36 36 36 36 36 79 36 79 
79 36 36 36 36 36 36 36 36 
36 36 36 36 36 36 36 36 36 
36 36 36 36 36 36 36 36 36 
36 36 36 36 36 36 36 36 36 
36 36 36 36 36 36 36 36 36 
36 36 36 36 36 36 36 36 36 
36 36 79 79 36 36 36 36 36 
36 79 79 36 36 36 36 36 36 
36 36 36 36 36 36 36 36 36 
36 36 36 36 36 36 36 36 36 
36 36 36 36 36 36 36 36 36 
36 36 36 36 36 36 36 36 36 
36 36 36 36 36 36 36 36 36 
36 36 36 36 36 36 36 36 36 
36 36 36 36 36 36 36 36 36 
36 36 36 36 36 36 36 36 36 