# vtk DataFile Version 3.0
vtk output
ASCII
DATASET POLYDATA
POINTS 20000 float
237.371 175.26 48.4106 187.159 201.235 72.1849 164.779 193.697 79.6144 
225.786 175.744 29.7773 243.792 178.598 63.8784 225.363 175 65.4185 
205.071 209.049 53.4336 218.669 188.238 78.6861 235.017 202.873 55.1915 
219.71 193.032 33.3787 193.695 208.123 62.2413 182.61 203.083 48.7741 
247.435 189.282 54.1771 227.228 199.593 40.4154 214.45 205.845 46.8245 
232.356 175.528 71.4526 242.217 177.845 86.2354 224.102 177.983 73.3353 
170.306 202.254 53.8644 190.979 205.44 69.1781 211.383 192.057 81.4636 
198.725 177.698 60.9146 214.312 195.719 83.7476 226.22 198.992 88.8127 
198.428 191.621 81.2476 231.904 196.363 37.4218 248.262 177.401 81.7762 
232.658 192.555 74.2584 220.663 175.249 66.6249 226.526 173.606 51.9624 
190.582 180.808 61.4078 203.522 176.763 63.7394 210.362 177.238 70.7064 
181.61 204.745 50.5763 241.823 176.958 64.3594 207.34 178.045 72.3017 
227.255 178.362 27.5219 248.745 204.718 95.425 212.474 208.836 75.1788 
234.401 202.732 52.9023 231.556 203.724 70.7697 247.221 187.882 65.3306 
210.071 176.627 68.5496 218.576 186.21 29.9941 202.916 177.422 66.4761 
215.965 192.433 81.586 208.292 183.074 77.1746 209.946 176.089 37.9862 
217.398 193.18 82.2496 240.678 198.685 78.4851 160.717 194.981 73.9456 
188.161 199.586 43.6566 197.99 195.191 81.2476 191.217 199.194 42.6939 
181.359 203.132 47.6607 231.817 181.985 78.8434 180.1 189.121 54.2288 
204.777 196.553 82.8154 235.808 194.54 82.2671 211.749 181.143 75.1817 
243.768 174.708 83.7076 191.064 204.453 71.2243 177.891 206.803 57.2845 
217.639 174.945 35.851 159.736 189.276 86.946 243.655 184.36 50.179 
204.321 202.995 80.2537 249.469 200.765 96.2476 241.599 195.431 92.6994 
219.452 212.485 63.2906 179.792 194.471 78.7078 223.326 174.581 32.3018 
256.001 204.75 90.1317 209.481 182.809 33.9651 227.423 176.544 71.7759 
238.855 199.4 49.8466 228.429 204.471 56.0187 186.236 182.866 61.4414 
166.034 190.076 68.7524 205.046 210.819 67.4956 166.788 195.671 69.9375 
243.608 195.228 92.9435 241.707 202.696 95.0202 201.08 207.354 73.6131 
199.977 194.288 37.8735 222.824 204.338 46.5094 205.839 203.798 80.1759 
242.368 174.821 84.3035 235.084 199.323 91.2602 245.012 186.454 50.6642 
178.345 203.769 61.2877 201.398 197.169 81.2476 198.756 188.01 37.562 
222.419 175 55.2196 245.094 195.292 93.0701 237.305 174.949 82.3082 
181.532 188.502 53.5812 230.826 205.308 67.5354 217.801 212.438 62.8088 
161.611 183.969 79.8632 214.365 192.139 33.5315 192.252 198.994 42.6058 
232.06 212.075 61.2578 242.083 176.352 72.7251 210.677 199.785 39.5639 
246.039 184.234 55.9737 212.042 197.898 36.1096 218.793 200.97 86.1676 
228.232 204.426 58.0092 228.824 201.654 66.6489 240.197 207.776 66.6186 
199.871 177.519 62.1676 173.239 197.152 74.4078 195.454 208.504 62.1783 
206.702 175.501 58.8192 229.667 171.874 46.9874 232.132 186.844 77.9894 
190.178 207.12 64.2435 216.583 197.882 35.7002 232.849 184.351 81.8591 
245.899 190.984 48.0634 217.069 205.111 81.911 193.082 207.605 66.4769 
226.33 206.874 80.0462 237.755 174.053 51.8895 188.074 183.621 54.8493 
237.301 193.173 37.2947 248.455 204.392 82.7556 182.925 187.436 53.5914 
186.083 206.866 58.2716 230.77 172.869 41.709 218.482 175.499 66.2122 
239.903 204.464 89.2389 215.845 211.563 70.6221 225.69 202.825 44.8142 
226.136 188.829 76.1597 232.73 174.411 66.9728 238.512 174.762 65.0162 
201.284 208.9 71.0024 232.979 204.575 72.3686 172.41 203.267 45.3524 
244.945 179.75 62.0745 208.922 211.852 66.0113 204.518 185.624 80.2466 
226.869 208.515 76.2569 194.607 207.109 70.0122 208.657 202.858 82.1784 
227.171 176.956 28.3818 188.586 189.638 44.5678 214.003 180.752 31.0423 
198.939 208.921 69.1577 229.762 214.095 65.0205 219.231 200.734 40.3156 
231.581 175.491 70.9996 181.837 186.966 75.9131 231.361 205.946 79.384 
173.905 206.71 57.8268 252.072 205.636 93.726 221.655 175.001 57.0947 
162.438 186.309 72.0104 164.635 184.306 74.4136 206.494 174.376 48.051 
202.989 202.039 80.5481 217.798 186.366 30.0025 210.808 178.544 73.2006 
205.538 195.486 82.5039 246.038 192.069 49.1361 189.659 191.571 78.7476 
239.484 200.307 56.4615 179.873 185.773 72.726 224.383 175.001 58.8053 
231.97 203.106 51.5879 169.265 190.082 81.4942 238.037 174.045 62.649 
175.715 191.709 58.9655 222.165 176.411 29.0271 180.483 193.091 48.5286 
244.977 188.286 72.8527 158.542 191.553 76.3997 234.377 179.3 34.5374 
241.307 178.884 52.453 194.689 180.158 69.1344 179.365 202.607 63.1589 
185.01 188.471 77.5271 179.705 198.288 72.9393 196.172 207.734 70.3374 
213.61 190.059 81.2128 177.838 204.736 46.6887 189.763 192.976 78.7476 
163.454 193.644 79.3918 205.161 175.059 55.3503 173.907 190.533 66.4639 
223.897 175.1 31.0532 214.117 174.378 57.4347 197.006 199.697 42.5086 
234.119 176.861 77.0383 238.348 213.069 71.036 249.318 194.951 91.1442 
201.523 178.68 39.5073 215.881 208.998 75.7674 243.666 205.165 92.3378 
236.186 184.275 33.4299 235.091 190.625 77.9203 227.963 174.37 35.0614 
245.102 205.17 82.933 246.683 202.439 81.2551 233.687 203.312 55.6973 
253.706 195.367 89.6618 253.753 204.869 86.4767 212.307 179.689 32.5928 
218.724 205.363 81.8328 238.16 188.475 80.6497 174.933 192.919 80.4446 
222.912 200.582 86.7995 230.774 173.871 38.0206 228.519 198.848 75.5816 
207.677 202.253 82.0766 201.212 209.08 55.3632 220.929 175.821 69.001 
171.453 189.391 68.2476 246.906 190.265 52.4878 201.594 177.673 40.5063 
183.082 197.909 75.4255 211.222 198.85 37.675 201.946 177.957 68.4608 
201.391 176.143 54.3462 214.721 174.796 62.1871 226.611 173.687 39.817 
172.938 199.158 50.9459 236.146 194.541 85.8724 164.092 194.436 69.1979 
208.148 210.039 71.242 198.355 178.855 67.3021 218.135 200.44 85.8552 
192.329 181.21 51.5837 230.419 202.029 72.3164 190.747 189.868 42.8431 
193.566 181.127 47.7979 189.401 194.129 42.5025 185.947 188.484 77.5269 
170.11 185.833 69.6216 204.467 176.598 39.6417 182.371 189.847 49.4313 
244.674 194.028 89.2781 229.836 182.063 76.2779 243.841 178.623 60.4643 
242.308 195.088 92.3278 242.333 188.769 78.5391 229.129 191.734 74.1764 
201.519 198.807 81.2476 228.104 184.018 27.5174 229.797 194.376 81.7062 
197.656 177.9 55.7553 187.119 199.921 44.364 193.767 195.885 79.3189 
212.1 188.032 80.5658 194.718 187.127 78.7394 158.779 185.845 81.9006 
213.752 207.272 48.3954 230.971 203.622 52.6954 222.457 210.502 58.6818 
250.132 196.502 94.2913 170.438 203.264 55.7301 194.704 191.592 40.0219 
181.022 193.924 47.2368 181.216 190.695 49.9889 210.201 199.022 83.7476 
186.399 206.496 61.9248 245.296 193.865 88.6995 198.442 206.471 73.5644 
213.822 174.376 53.6518 166.101 189.377 68.7524 220.263 196 35.0337 
232.042 203.746 55.3752 245.58 174.457 83.3032 228.526 208.008 76.2563 
248.828 201.792 81.2533 234.463 215.65 66.0937 237.704 198.874 76.3893 
219.062 207.192 79.2592 172.27 202.803 45.8671 203.686 176.871 64.7134 
233.806 192.405 75.3504 236.543 203.193 78.1798 178.996 193.698 49.5052 
214.672 174.395 59.942 201.039 184.948 37.4766 220.461 184.073 76.2476 
200.246 176.172 50.8195 238.402 178.8 45.3362 235.922 206.649 81.0617 
225.268 195.88 85.6132 195.462 189.94 39.9748 245.308 193.882 62.6157 
242.658 177.047 72.5794 209.309 211.063 69.7832 185.234 198.852 74.5622 
202.549 208.097 73.0231 171.07 194.822 79.0817 239.482 197.277 67.875 
243.928 200.568 79.9397 169.509 192.982 68.7524 207.479 174.378 51.991 
209.914 210.66 71.0621 240.912 175.944 62.7194 244.174 205.458 91.7915 
236.841 200.795 76.7624 251.704 198.844 81.9171 190.243 180.969 63.4661 
218.761 173.624 45.3128 204.871 177.071 38.8726 205.957 208.802 73.5006 
189.204 200.748 45.2231 185.824 195.271 42.5516 173.316 205.362 45.3266 
221.795 184.958 76.2476 169.257 202.728 50.3724 205.908 177.8 71.5042 
237.644 206.459 82.6544 184.77 206.56 53.6818 186.799 206.873 58.4427 
198.157 205.099 74.7708 182.118 206.375 53.649 220.715 207.846 78.067 
247.364 185.165 59.6156 180.977 199.046 71.3956 207.757 207.781 75.2403 
191.95 206.246 68.6133 246.633 205.595 85.3916 253.802 195.756 85.7388 
200.511 208.033 52.8825 186.158 193.785 43.2667 233.553 172.494 53.2711 
232.103 199.752 91.2263 173.373 208.021 49.586 242.155 209.635 64.0735 
227.697 204.658 61.2322 209.421 190.494 34.9736 234.849 188.616 79.7628 
234.477 196.85 70.917 243.38 173.245 77.1661 202.033 182.411 75.8462 
176.739 185.479 70.0616 244.195 181.273 72.9798 252.28 196.478 94.2 
236.365 213.574 61.2685 178.923 186.824 61.2473 222.547 174.265 51.2946 
231.575 174.422 66.6856 198.028 202.616 45.2671 237.556 193.501 38.3454 
235.496 201.55 50.7333 184.931 206.854 57.3687 239.853 183.354 42.7829 
235.725 189.867 78.8361 159.052 186.888 77.1914 233.547 205.601 69.2637 
238.898 203.477 91.0099 218.95 175.987 31.7159 218.731 206.249 80.3158 
174.927 199.231 63.761 233.515 194.377 82.7741 158.145 189.243 77.8897 
216.448 174.988 62.5868 187.349 199.542 43.734 214.461 211.799 70.1368 
235.462 214.124 71.0569 180.806 205.417 51.1242 214.919 210.038 73.6398 
198.974 176.4 47.6872 243.887 180.773 85.6274 210.019 205.653 79.2067 
174.432 205.69 46.1619 226.586 213.429 68.1861 207.81 188.174 34.9874 
187.085 197.334 78.0202 244.241 185.533 50.1265 170.776 205.615 46.3285 
232.604 202.809 60.0961 191.486 184.16 75.3129 215.098 176.689 69.6174 
216.552 174.372 48.2258 224.783 174.92 31.4122 235.734 174.349 65.4787 
202.237 177.76 67.6919 241.747 200.328 96.1072 217.461 194.971 34.9345 
226.43 173.448 40.5889 242.474 211.568 64.576 174.108 185.265 74.7264 
232.21 200.999 91.217 187.012 187.495 47.804 234.001 174.643 68.0021 
223.726 212.525 62.1679 244.46 190.124 44.7279 207.296 201.34 42.3225 
201.549 203.602 78.0569 245.966 194.327 84.0383 241.126 184.248 44.5064 
180.184 199.41 69.5444 218.929 179.228 28.7294 195.879 200.16 77.9613 
235.991 205.314 85.6418 170.255 194.729 79.1921 239.341 198.623 48.7275 
245.336 205.622 91.2076 229.468 209.009 76.1261 210.22 183.304 77.3767 
246.077 195.059 82.7624 225.207 204.092 86.7983 211.619 179.63 33.175 
[...]
POINT_DATA 20000
FIELD FieldData 2
scalars 1 20000 double
43 59 56 46 81 61 74 49 65 
58 75 61 71 57 67 61 46 43 
68 69 68 78 99 61 73 53 43 
49 80 52 89 76 51 59 77 53 
55 55 61 63 78 69 48 62 64 
68 62 56 51 68 54 63 76 56 
65 47 109 66 55 58 52 76 86 
57 64 40 62 51 41 92 66 56 
74 77 55 48 100 84 42 108 60 
48 49 76 48 74 51 43 49 44 
70 80 54 47 61 52 99 91 107 
65 68 61 84 49 55 67 61 116 
91 81 66 86 42 86 84 71 49 
58 70 57 63 71 80 61 57 79 
67 56 87 84 61 75 58 67 66 
46 72 72 75 79 57 68 108 54 
77 96 63 46 100 60 102 95 70 
58 106 63 80 53 60 56 47 59 
65 61 53 70 65 71 76 88 51 
84 63 75 82 51 95 60 66 53 
51 70 81 84 60 86 58 42 70 
60 78 94 58 81 67 46 43 65 
58 45 69 49 48 40 66 33 73 
45 70 65 49 52 63 88 56 62 
65 85 64 48 57 47 66 51 59 
85 63 57 78 58 84 76 78 107 
116 64 84 71 75 88 81 67 121 
63 52 62 42 69 59 87 54 94 
77 62 88 67 70 58 64 85 107 
57 75 86 82 110 79 62 69 66 
64 43 64 75 52 84 31 60 42 
60 66 69 55 46 81 84 64 50 
62 48 62 70 72 68 44 82 62 
67 69 61 38 63 80 76 70 63 
35 36 91 72 65 78 73 71 56 
46 71 48 85 74 87 76 66 57 
58 79 52 72 88 33 65 67 85 
43 82 59 89 57 51 56 45 94 
76 52 69 49 121 53 56 95 61 
59 74 51 52 66 64 61 52 49 
71 55 59 75 61 66 84 68 64 
55 51 50 58 89 57 67 40 87 
64 71 61 88 58 73 63 62 52 
57 60 72 43 73 93 105 55 56 
73 93 47 83 58 66 77 65 61 
50 73 52 61 85 67 74 65 68 
63 52 77 50 72 54 57 74 54 
71 66 76 44 49 60 76 65 43 
88 61 50 55 119 68 66 110 63 
77 87 57 55 75 66 67 77 64 
67 87 65 68 77 49 68 48 103 
55 111 62 70 61 50 48 65 102 
67 59 39 73 48 57 64 70 82 
55 34 84 31 59 48 111 78 57 
52 55 66 47 86 49 51 55 83 
60 109 50 45 104 66 63 91 90 
61 76 57 82 43 60 53 57 70 
61 87 46 65 54 57 88 47 102 
39 80 69 72 86 73 109 49 90 
51 46 58 62 46 76 68 78 68 
45 46 70 45 53 59 121 107 65 
79 69 73 49 56 59 93 95 80 
50 57 49 73 51 59 63 59 62 
68 88 81 51 70 51 78 71 60 
58 79 63 56 69 66 72 90 54 
71 103 78 71 90 46 83 69 82 
52 109 59 95 58 67 58 74 51 
43 47 47 80 70 45 49 109 47 
73 95 47 71 69 51 114 69 53 
75 95 72 67 74 58 51 56 81 
54 79 89 95 90 55 56 86 53 
84 52 70 64 35 93 74 68 57 
68 98 47 39 93 110 51 58 49 
63 54 48 62 51 48 67 68 52 
77 83 48 71 55 68 98 103 57 
57 61 65 95 92 64 74 65 54 
71 62 48 45 46 107 51 49 48 
88 82 54 107 40 54 45 55 56 
61 54 70 66 73 52 105 49 67 
87 79 53 54 89 60 69 44 80 
64 90 84 88 74 87 73 89 56 
75 78 60 57 50 66 63 59 55 
74 95 78 69 53 63 57 89 76 
49 76 70 90 55 58 66 63 55 
84 54 60 69 53 73 67 55 84 
86 69 72 53 69 62 74 53 66 
79 108 63 63 80 114 52 65 50 
57 60 62 101 72 49 51 58 76 
50 67 97 96 41 44 56 59 72 
61 61 96 73 49 59 53 99 68 
71 47 51 61 81 94 44 54 69 
80 79 48 70 48 68 90 45 64 
72 60 86 43 55 60 58 64 44 
100 98 52 77 53 68 76 47 70 
69 56 74 76 59 52 61 60 55 
43 69 88 79 54 102 76 122 69 
65 91 61 55 58 37 56 70 73 
48 67 75 49 69 63 53 63 55 
78 53 71 60 57 64 95 69 80 
92 53 59 54 100 57 63 62 49 
77 82 67 61 97 50 60 68 52 
64 120 55 63 55 119 41 52 90 
43 60 56 105 67 51 65 25 53 
70 56 73 70 55 61 66 83 80 
54 70 60 97 78 49 55 58 55 
63 56 85 59 106 60 67 67 61 
46 59 86 90 65 69 58 104 57 
51 56 75 90 55 60 50 65 94 
104 69 74 53 51 52 70 50 47 
73 61 63 65 63 121 58 58 67 
58 46 90 55 110 57 60 52 59 
48 67 55 42 66 67 51 91 71 
44 57 55 74 55 73 54 51 108 
62 92 93 48 43 57 81 74 53 
62 117 53 70 42 79 84 78 62 
57 59 52 68 81 56 50 51 64 
72 89 78 54 113 44 76 56 57 
52 74 100 89 85 86 57 90 59 
57 114 75 109 64 83 49 117 73 
56 41 54 65 87 48 67 70 62 
63 38 72 67 68 77 74 87 71 
62 54 52 86 77 83 74 49 66 
62 88 80 49 82 69 38 85 74 
62 41 51 55 61 56 75 91 68 
50 81 68 55 73 61 62 45 59 
56 70 74 65 37 74 88 39 84 
62 99 105 71 113 82 79 90 67 
41 64 80 61 61 70 58 58 71 
63 112 55 45 81 63 56 66 109 
43 68 60 66 83 96 45 89 55 
77 62 61 59 114 51 58 29 81 
91 83 51 68 44 46 76 73 47 
40 71 53 62 61 93 63 48 53 
61 60 48 50 72 60 52 79 46 
74 90 48 50 70 64 49 60 64 
43 67 49 74 80 63 73 58 72 
60 51 64 63 89 55 66 57 68 
55 88 42 60 53 66 48 58 46 
70 53 59 44 76 57 50 83 63 
49 70 54 64 54 82 70 66 92 
71 70 84 49 56 74 58 66 87 
63 72 105 43 97 57 58 97 51 
73 54 48 77 73 62 70 80 71 
56 72 58 44 63 53 83 56 44 
39 47 72 56 63 62 89 84 55 
49 77 64 57 42 59 77 101 66 
55 64 93 63 54 51 64 71 52 
64 63 61 60 49 67 48 69 34 
64 58 66 57 44 81 59 60 57 
57 50 54 85 68 67 48 63 46 
55 66 75 63 75 61 83 56 66 
62 50 53 80 51 60 72 88 67 
102 86 52 59 58 53 101 59 73 
38 74 60 51 56 58 69 57 57 
50 117 77 115 76 92 45 73 61 
55 55 64 53 62 56 76 116 62 
83 41 54 63 40 55 76 68 84 
66 52 45 54 54 100 86 71 61 
86 63 82 87 88 73 35 82 53 
93 75 58 76 51 68 92 61 52 
61 61 50 96 48 57 51 65 45 
39 69 61 75 96 59 47 53 61 
39 51 58 59 63 59 53 65 53 
90 97 42 49 60 62 51 47 66 
64 50 62 66 99 51 34 63 53 
65 58 53 54 58 33 75 86 71 
64 58 58 57 54 45 132 55 68 
63 42 87 88 61 54 66 50 89 
82 81 104 60 90 82 59 58 59 
64 59 56 75 65 68 66 44 55 
55 35 68 38 94 70 85 73 36 
77 61 71 60 36 62 81 50 91 
70 66 66 67 61 84 72 80 56 
77 82 57 62 63 64 64 95 78 
45 40 80 72 62 64 85 51 55 
68 84 79 59 53 103 98 109 70 
67 54 64 62 81 62 47 65 65 
62 85 70 47 66 42 85 58 46 
64 45 42 46 97 46 83 49 79 
45 129 56 52 52 44 62 76 74 
65 50 56 62 115 77 62 101 69 
79 108 50 85 103 87 75 49 89 
58 107 61 64 59 53 94 61 80 
57 56 93 102 74 104 58 89 75 
57 61 66 63 42 65 66 69 52 
48 93 55 62 72 54 81 44 90 
68 45 37 81 53 76 71 98 67 
47 72 52 65 58 69 74 50 69 
43 63 47 65 89 106 46 68 52 
55 55 69 84 84 46 98 66 78 
60 51 51 75 102 69 89 61 65 
88 62 77 48 64 73 113 54 83 
61 53 67 117 55 66 58 80 73 
42 73 30 64 62 78 58 75 59 
67 114 73 50 57 78 68 41 64 
68 59 69 64 59 69 68 100 63 
63 56 53 68 57 70 49 59 49 
88 40 85 67 52 52 61 56 66 
41 72 52 54 47 55 73 75 70 
77 65 83 39 53 118 65 49 55 
59 61 53 59 79 73 55 48 59 
106 51 62 63 63 77 83 62 79 
57 50 68 71 57 71 55 54 59 
62 53 64 89 91 73 60 72 53 
34 55 67 46 54 44 58 63 62 
51 71 62 70 75 63 76 68 62 
61 75 45 68 47 59 71 53 60 
63 69 97 66 74 51 106 50 80 
46 90 48 62 63 80 65 96 66 
56 68 59 50 64 35 61 59 85 
58 54 84 54 54 94 50 120 70 
55 63 81 79 65 49 68 52 62 
54 48 78 84 55 59 70 66 52 
58 39 58 66 47 44 82 44 45 
56 61 102 74 77 92 83 87 77 
104 60 69 106 58 67 65 74 65 
42 73 68 66 42 92 51 53 56 
74 45 72 86 111 44 57 103 107 
80 97 57 69 79 52 54 44 85 
54 91 86 66 62 87 53 73 109 
71 52 69 68 64 77 51 87 96 
53 65 65 54 78 63 61 57 45 
61 48 43 124 59 43 118 39 55 
61 97 84 53 84 61 44 66 78 
55 99 57 57 57 82 123 75 64 
69 56 56 63 58 35 66 76 39 
70 48 70 61 94 112 56 128 66 
64 66 70 53 84 58 77 51 71 
56 71 58 73 54 44 116 52 70 
62 57 95 61 75 59 98 56 87 
109 77 37 76 55 93 48 66 44 
62 66 80 50 60 65 51 62 61 
58 59 63 47 77 67 72 50 44 
58 72 60 73 53 64 73 85 60 
88 47 91 51 73 35 66 60 52 
56 73 75 52 81 56 81 45 37 
72 51 42 52 50 61 69 50 59 
69 63 53 64 49 78 60 67 50 
57 46 49 68 50 54 63 62 51 
62 78 128 85 56 57 63 86 50 
58 78 85 59 87 97 81 80 75 
59 56 67 54 61 54 88 45 50 
78 96 63 97 86 43 67 55 52 
62 44 107 67 59 92 55 54 76 
65 59 43 62 103 39 86 69 74 
45 91 70 38 66 70 107 48 45 
48 79 69 65 51 54 73 70 50 
62 60 51 44 48 57 49 90 88 
55 59 90 52 64 72 68 68 61 
90 94 73 73 61 60 67 60 92 
105 103 55 72 57 64 73 74 70 
63 87 51 60 46 83 94 69 57 
60 61 44 68 56 53 52 70 80 
52 53 64 67 118 63 55 58 70 
109 88 59 57 43 82 63 51 75 
116 62 86 107 118 53 68 60 86 
54 65 76 46 77 53 73 75 55 
75 49 100 64 33 50 61 57 64 
74 43 84 65 75 57 44 52 85 
77 54 75 114 66 68 61 57 52 
49 89 46 53 60 65 50 54 64 
68 96 52 87 65 64 65 55 65 
87 61 72 69 60 52 71 54 55 
59 63 89 51 85 62 53 72 57 
59 55 51 51 59 45 50 62 45 
77 78 91 53 79 85 40 62 26 
53 73 65 78 57 57 50 52 43 
73 61 56 68 65 76 51 66 55 
69 52 80 56 60 86 59 71 63 
58 65 71 58 90 62 84 60 72 
47 78 98 68 52 39 73 51 70 
78 78 65 64 67 58 81 76 76 
39 61 99 62 82 85 101 59 48 
44 47 65 64 70 60 87 89 62 
78 60 111 91 118 51 98 77 61 
51 36 51 62 55 57 43 57 48 
67 116 67 62 47 80 85 79 44 
52 63 90 77 84 47 94 69 52 
63 72 81 45 76 68 81 57 65 
69 44 77 59 70 63 62 61 76 
95 46 48 113 41 68 95 54 75 
59 72 55 75 66 88 59 67 60 
52 87 74 69 82 104 86 60 63 
50 66 71 56 98 50 108 53 40 
58 77 58 91 73 49 77 51 64 
96 79 57 62 108 76 70 51 47 
108 42 61 36 62 62 64 56 45 
66 56 74 68 44 28 51 72 72 
53 61 87 75 54 60 57 56 47 
70 51 61 72 101 64 58 62 59 
57 75 46 47 51 65 73 69 58 
66 110 96 72 57 62 73 57 126 
61 73 59 67 81 64 70 50 58 
67 48 44 62 67 59 60 40 84 
45 44 56 66 102 53 54 67 54 
56 76 87 61 61 42 105 62 46 
65 75 63 88 65 54 54 55 93 
68 62 60 63 54 51 30 59 67 
47 108 69 76 73 69 82 87 57 
58 76 85 61 41 39 74 62 57 
69 65 45 58 109 56 81 75 62 
40 81 49 58 65 67 49 63 67 
44 67 98 90 71 63 59 61 84 
58 94 79 82 78 48 67 65 61 
58 62 73 95 67 51 73 111 60 
59 73 93 50 54 94 46 49 63 
52 111 84 69 78 57 68 86 109 
57 47 65 73 43 70 83 67 38 
65 54 45 102 64 56 46 49 72 
59 97 87 51 73 50 59 91 83 
123 37 54 91 43 52 107 64 49 
54 58 88 66 62 63 73 61 45 
33 65 42 53 61 76 75 61 58 
84 46 57 74 56 51 55 56 57 
68 65 59 49 89 80 70 72 64 
62 48 57 75 68 40 113 96 96 
49 83 88 55 51 42 63 67 74 
78 69 87 61 78 63 45 73 53 
77 62 80 51 72 55 117 59 85 
73 59 74 42 52 43 50 102 67 
56 47 54 66 43 50 87 49 60 
88 57 60 48 55 68 47 83 61 
99 66 81 74 55 69 65 61 85 
67 66 69 56 44 74 53 67 53 
64 56 74 56 55 50 38 86 65 
91 61 102 72 71 42 71 103 61 
54 46 79 112 56 69 69 74 64 
43 62 47 44 46 41 68 62 69 
50 57 45 66 65 63 77 88 70 
65 64 55 54 57 49 75 48 58 
45 126 56 65 53 62 55 47 60 
89 58 65 52 56 65 42 67 66 
78 57 65 57 64 84 55 65 59 
76 83 108 54 57 49 105 74 48 
70 64 79 49 58 102 66 75 67 
43 86 72 67 82 91 78 47 67 
63 62 52 58 45 62 55 125 57 
50 61 85 54 67 85 71 82 73 
78 87 82 66 51 92 72 101 72 
69 47 49 46 81 66 52 58 68 
49 58 109 71 90 39 54 73 59 
50 65 63 54 44 65 51 55 71 
80 45 57 81 65 90 71 47 54 
76 45 61 61 55 60 80 80 52 
43 49 63 65 78 89 70 59 58 
53 61 52 50 52 52 81 86 114 
69 93 55 77 73 81 69 56 59 
84 79 49 68 72 106 58 67 52 
55 48 85 89 80 101 50 90 91 
60 60 54 53 99 57 76 63 100 
68 90 60 117 49 72 63 73 66 
51 55 85 95 95 58 32 77 114 
88 58 83 60 63 102 85 79 114 
73 69 66 40 73 101 65 71 51 
64 65 68 97 48 54 79 54 50 
64 60 51 33 98 46 66 68 77 
44 61 59 70 43 84 65 49 55 
80 65 54 72 50 60 49 100 48 
109 72 79 57 96 87 52 44 63 
65 61 100 52 61 88 77 72 56 
89 73 62 108 60 51 56 65 66 
67 57 54 58 70 57 61 76 62 
73 59 55 63 56 38 61 72 69 
36 59 45 55 78 64 88 101 91 
37 65 54 73 47 68 73 77 52 
84 71 59 55 98 55 59 65 50 
86 67 71 81 60 39 85 78 70 
82 47 48 42 82 46 88 69 62 
71 86 61 39 106 64 54 85 52 
69 54 64 63 55 47 60 65 73 
121 44 66 59 62 71 80 60 74 
55 72 73 47 64 61 69 61 63 
50 65 78 47 70 53 59 64 71 
50 70 59 67 64 72 58 72 41 
45 58 53 58 57 53 59 77 77 
121 66 62 60 60 94 51 72 63 
53 96 78 45 118 76 52 58 88 
76 42 82 75 72 62 70 45 76 
68 58 71 81 68 75 77 75 62 
107 46 98 96 50 50 48 50 57 
78 85 73 49 78 81 60 69 97 
81 87 58 54 98 67 51 80 96 
58 67 84 56 51 70 80 61 52 
69 46 61 50 58 42 89 73 81 
59 51 82 60 37 50 78 87 81 
55 49 89 61 52 72 82 55 51 
50 65 75 68 85 53 61 79 60 
78 70 59 68 56 49 47 62 67 
66 64 85 96 50 37 70 55 65 
63 82 81 76 48 116 53 59 71 
81 48 74 79 60 60 37 56 91 
60 96 76 82 59 64 56 97 54 
56 63 44 51 62 51 72 63 48 
59 56 61 97 58 91 64 76 45 
56 48 79 65 55 78 78 54 76 
64 56 42 80 52 65 52 74 64 
44 97 76 63 50 56 58 54 69 
45 61 63 73 66 54 68 67 48 
71 101 48 59 63 64 55 65 54 
82 53 58 70 70 59 66 99 52 
52 86 56 46 48 66 53 111 81 
89 60 56 71 51 92 82 70 93 
60 53 81 42 78 76 80 72 65 
53 88 58 44 65 53 52 88 60 
75 85 92 54 55 77 60 70 47 
62 89 32 71 82 91 87 77 67 
58 74 86 82 77 109 65 118 77 
110 55 89 65 81 64 84 68 46 
60 98 48 54 78 65 59 67 47 
101 70 63 64 64 38 86 70 65 
81 57 58 50 69 60 50 57 105 
56 82 51 74 94 68 113 34 89 
73 63 73 91 63 59 51 57 46 
90 58 80 59 61 108 71 53 62 
47 70 67 48 90 67 68 68 92 
54 64 87 46 62 95 76 63 79 
65 65 78 62 57 59 62 53 58 
63 76 61 59 50 100 47 52 70 
53 64 81 65 54 72 62 51 49 
50 66 57 87 50 51 60 76 70 
58 62 67 86 66 48 72 59 56 
62 81 70 46 87 71 50 94 88 
66 95 53 52 97 61 43 70 72 
101 74 69 108 78 49 44 78 62 
76 62 68 60 83 54 67 46 60 
78 111 63 52 53 89 80 63 64 
42 75 77 46 100 78 81 54 46 
71 43 51 63 86 90 57 83 64 
77 50 48 53 64 74 63 46 59 
56 45 47 74 49 50 49 72 91 
98 79 50 49 59 75 67 57 72 
65 45 81 55 49 58 52 52 63 
63 74 63 53 67 73 64 73 52 
58 60 47 75 70 58 58 77 69 
107 54 56 68 49 62 67 64 67 
68 54 86 63 85 84 59 56 54 
57 46 54 55 54 58 59 57 71 
56 58 72 55 63 60 77 57 61 
48 68 58 95 80 50 46 84 71 
44 55 59 46 50 86 81 122 80 
66 64 62 80 59 64 67 57 46 
74 60 43 78 58 52 61 45 59 
33 46 66 93 44 53 78 97 83 
115 60 110 78 81 48 63 39 69 
53 61 82 117 90 48 72 66 104 
47 62 48 68 55 74 79 47 103 
116 83 42 70 53 80 55 78 96 
87 51 67 81 67 42 68 79 91 
47 71 87 87 61 55 42 54 80 
65 46 88 52 65 54 64 85 67 
118 54 71 77 102 71 51 59 53 
49 53 58 56 58 50 61 58 55 
46 65 80 87 95 76 48 97 62 
56 59 63 66 57 41 69 56 58 
69 60 75 45 45 79 82 86 40 
49 110 49 87 80 52 63 65 79 
76 79 55 46 82 68 53 45 68 
42 80 52 92 90 56 73 61 64 
63 43 112 60 60 77 76 87 66 
41 76 63 60 74 56 45 70 51 
61 59 69 88 83 69 79 73 69 
66 120 99 70 63 54 68 66 73 
43 47 43 51 64 60 53 78 33 
44 89 60 58 53 95 62 85 63 
92 100 70 86 91 72 61 97 81 
69 72 55 67 60 75 67 58 51 
60 44 53 104 82 60 62 62 69 
64 57 75 45 71 46 71 53 55 
88 61 72 65 116 46 45 79 75 
90 42 54 63 46 74 68 65 75 
125 50 47 89 79 64 44 70 52 
74 52 59 70 47 71 109 112 42 
57 70 86 32 52 75 75 69 46 
40 44 107 79 32 47 67 86 95 
70 64 52 55 57 56 90 69 84 
59 97 91 76 81 108 77 58 86 
55 105 46 50 54 81 52 59 59 
60 49 69 69 50 44 51 55 82 
43 52 53 80 62 44 58 49 50 
94 60 38 38 58 78 103 69 59 
78 76 63 66 78 53 75 64 69 
85 66 66 75 47 68 70 91 77 
58 60 108 77 50 60 77 28 72 
81 78 108 83 55 97 54 59 49 
75 77 47 67 48 64 59 62 59 
69 75 67 86 53 89 50 59 95 
41 56 56 51 72 48 55 133 88 
40 53 85 43 77 66 87 66 84 
45 57 65 42 58 45 57 66 38 
47 53 48 60 61 52 79 43 69 
57 88 70 52 56 44 59 83 87 
48 57 78 54 59 64 61 59 63 
66 67 55 113 77 93 56 54 104 
101 72 53 73 59 55 56 75 70 
59 73 60 48 95 109 56 65 88 
50 48 65 53 73 62 52 66 69 
54 62 83 75 67 53 64 59 69 
55 58 82 60 70 62 98 55 112 
56 120 61 45 64 76 64 66 82 
61 127 45 62 44 71 59 74 59 
54 119 79 45 54 66 80 83 52 
46 43 77 55 56 57 74 79 69 
61 68 72 66 64 98 42 54 98 
52 72 90 65 77 69 55 58 84 
46 103 50 63 54 70 55 74 78 
64 49 49 55 88 69 61 70 85 
63 57 64 54 78 57 66 54 43 
75 57 60 94 67 68 64 67 64 
58 66 82 49 69 65 52 77 74 
120 109 66 61 63 50 57 61 46 
78 52 62 83 54 77 61 64 55 
68 64 55 70 47 71 87 61 55 
96 89 53 63 83 47 79 52 40 
53 90 89 48 91 80 78 66 73 
102 75 119 58 64 46 70 63 108 
67 51 56 86 56 85 61 51 65 
70 52 79 86 64 78 51 98 58 
41 84 50 93 60 57 53 65 70 
75 61 73 52 53 52 47 90 63 
57 48 56 91 43 60 55 64 65 
90 67 26 80 45 73 80 53 42 
50 118 47 94 66 74 50 54 83 
65 66 85 77 79 65 52 73 49 
78 71 44 57 54 74 67 63 52 
55 53 59 76 49 60 82 86 51 
56 60 49 68 57 48 50 68 54 
55 47 51 66 93 62 108 65 51 
77 51 83 60 62 53 81 52 55 
79 68 71 65 80 50 57 81 42 
69 53 53 63 72 111 52 71 39 
70 68 69 58 64 75 54 105 91 
40 98 70 50 82 63 72 47 73 
54 89 58 55 98 43 70 68 58 
68 46 46 97 62 59 65 48 69 
68 47 59 63 50 63 55 69 72 
72 61 79 58 66 84 58 56 50 
57 49 64 47 70 50 64 72 60 
56 62 77 49 41 66 92 87 85 
74 72 83 62 47 50 61 88 58 
76 53 96 81 69 48 75 49 58 
57 47 82 42 87 76 54 70 52 
67 51 60 62 61 65 83 53 46 
91 105 54 65 63 60 79 69 68 
87 38 60 84 59 116 56 75 60 
81 75 61 56 75 97 97 72 77 
60 81 72 37 47 64 55 69 106 
71 68 39 76 51 44 66 57 61 
70 67 54 49 70 56 75 55 56 
32 67 59 61 69 80 99 97 79 
55 65 87 47 60 78 52 48 38 
80 64 38 59 94 64 50 61 57 
95 92 58 64 58 44 49 75 59 
97 62 85 66 60 80 63 52 73 
71 92 56 74 48 52 42 76 70 
80 106 80 85 92 52 54 56 62 
67 54 40 47 58 71 63 78 92 
63 92 49 43 86 83 55 51 92 
77 55 45 49 69 71 71 74 56 
67 58 56 49 57 49 29 85 86 
33 60 69 52 48 51 90 56 61 
50 94 89 45 59 61 50 52 56 
47 62 62 105 55 68 73 53 61 
37 71 57 62 71 64 40 55 65 
92 56 73 47 86 70 50 64 58 
54 58 51 67 57 116 76 92 67 
61 65 77 67 75 90 69 74 74 
98 122 84 55 52 63 56 53 44 
119 72 76 66 65 39 48 68 42 
62 88 91 59 77 116 54 61 53 
70 52 59 72 48 74 64 62 57 
46 62 81 73 78 94 64 131 103 
61 79 57 92 58 42 129 74 49 
37 102 72 67 63 59 48 42 86 
97 45 66 63 56 40 55 28 61 
79 65 58 88 57 52 58 97 56 
59 55 66 114 56 85 52 90 45 
69 81 84 69 47 52 79 39 93 
67 62 52 93 43 72 66 44 53 
78 39 65 42 61 55 72 48 63 
77 36 72 73 86 65 72 78 47 
82 60 52 58 51 43 53 65 73 
73 49 72 62 56 77 62 62 74 
47 60 119 69 54 53 110 78 44 
35 76 86 56 56 66 60 55 80 
94 76 80 63 50 55 56 62 88 
55 74 44 66 110 91 36 55 44 
58 47 94 61 59 61 69 123 70 
61 65 62 45 64 79 65 56 68 
32 46 88 65 64 67 63 82 54 
64 69 52 44 67 71 53 53 55 
84 63 59 52 60 48 66 48 81 
55 52 61 39 76 67 62 80 73 
55 59 60 58 55 55 45 57 91 
67 85 64 46 89 60 44 80 75 
45 46 43 61 44 47 47 50 65 
62 50 89 51 78 43 73 66 77 
78 35 58 48 50 103 71 52 68 
51 49 39 44 75 56 63 58 111 
50 58 69 65 84 101 58 60 58 
47 58 76 63 79 78 68 52 58 
73 70 65 52 52 68 49 53 104 
95 54 45 54 68 48 50 61 72 
60 69 85 52 61 57 66 70 59 
59 47 55 34 68 93 46 54 86 
69 67 47 63 38 74 64 107 113 
65 52 57 69 49 76 67 67 66 
67 59 61 56 82 57 53 47 82 
71 62 55 48 58 54 46 67 77 
63 67 44 51 64 122 51 56 48 
90 49 69 53 61 36 54 78 100 
70 33 55 51 77 85 67 90 85 
45 62 56 50 57 49 60 49 54 
53 59 79 65 51 60 63 57 78 
75 56 94 74 63 94 56 66 51 
84 44 65 67 53 41 93 68 68 
65 68 122 110 46 76 48 75 57 
67 42 46 65 81 56 40 56 75 
87 43 71 97 48 52 59 65 84 
48 61 49 65 45 45 71 81 51 
66 72 63 48 70 63 57 68 55 
64 51 67 74 77 51 50 61 72 
71 54 85 79 60 85 70 99 79 
61 33 69 60 67 66 53 72 43 
63 63 57 89 46 54 66 95 100 
40 52 76 75 52 61 53 57 66 
73 76 49 69 63 71 57 48 117 
73 62 56 46 72 54 49 58 54 
71 57 73 51 73 51 50 76 59 
74 61 97 61 64 54 105 54 54 
86 45 67 56 74 75 113 82 95 
64 106 53 66 75 79 68 76 96 
56 53 65 79 65 55 51 65 74 
63 66 42 71 70 50 66 70 95 
66 58 69 75 37 55 53 81 75 
96 63 60 59 60 73 57 58 55 
62 55 46 121 72 64 54 52 52 
95 62 98 105 41 76 41 112 71 
40 83 44 72 45 99 69 65 52 
63 73 57 60 79 115 83 54 34 
98 71 50 54 54 66 50 53 72 
56 54 57 61 47 69 47 60 50 
82 56 63 89 64 63 68 46 62 
69 43 60 58 57 60 62 65 80 
50 53 70 61 79 76 47 54 84 
75 85 48 43 60 68 44 51 74 
85 86 49 64 60 46 67 82 51 
61 112 86 64 66 47 81 74 46 
101 58 88 49 49 79 50 53 77 
88 67 50 73 58 60 54 70 86 
74 86 103 73 39 78 93 63 68 
67 53 67 61 64 51 41 71 67 
38 63 71 84 48 58 53 65 49 
103 57 49 70 55 74 63 91 48 
106 43 44 60 53 99 44 53 42 
76 101 59 61 58 89 65 67 54 
81 62 58 62 71 91 61 55 55 
81 87 104 59 55 56 53 99 44 
58 63 48 35 96 79 78 47 70 
60 63 54 31 68 70 77 72 49 
87 80 51 69 63 59 61 69 82 
76 48 57 60 60 67 52 111 46 
64 70 46 52 75 38 61 96 56 
50 54 78 55 52 63 59 61 51 
44 66 55 84 62 73 66 111 55 
46 94 95 43 78 99 79 58 83 
71 54 81 118 65 74 67 70 59 
75 47 99 86 97 73 88 66 63 
79 58 105 49 55 63 78 47 70 
60 71 63 46 51 50 60 48 58 
71 40 52 72 58 81 60 103 78 
72 84 92 52 91 123 59 59 38 
61 66 53 63 59 49 90 89 52 
101 43 59 56 65 53 49 69 63 
82 55 86 60 51 69 47 53 59 
26 101 42 73 107 66 65 54 105 
60 53 69 70 72 60 66 58 74 
78 71 74 89 53 44 55 48 119 
73 58 56 54 42 64 47 58 112 
26 59 59 51 105 49 55 65 53 
45 46 47 66 70 47 58 92 60 
61 72 63 49 84 62 91 104 68 
76 53 97 56 43 95 62 61 72 
44 57 56 98 83 52 97 52 110 
62 55 62 57 52 50 63 52 63 
82 82 51 42 67 86 51 60 73 
60 79 62 61 55 56 44 79 66 
61 38 89 96 77 52 106 56 80 
72 74 90 75 65 62 69 60 75 
54 88 62 39 84 51 55 74 83 
66 42 75 62 58 74 39 103 56 
79 68 60 52 73 83 41 108 76 
85 69 44 49 57 38 63 55 73 
59 49 59 50 129 84 77 65 56 
61 68 46 77 51 66 55 67 56 
64 57 97 71 67 54 46 75 49 
109 48 54 39 65 46 80 41 109 
57 88 88 56 46 81 66 70 57 
87 63 72 63 41 45 55 65 72 
44 51 64 60 44 39 85 69 86 
59 54 68 79 77 49 54 52 80 
56 72 99 95 93 58 67 116 56 